------------------------------------------------------------
          Invoking FHI-aims ...

          When using FHI-aims, please cite the following reference:

            Volker Blum, Ralf Gehrke, Felix Hanke, Paula Havu,
            Ville Havu, Xinguo Ren, Karsten Reuter, and Matthias Scheffler,
            'Ab Initio Molecular Simulations with Numeric Atom-Centered Orbitals',
            Computer Physics Communications 180, 2175-2196 (2009)

          In addition, many other developments in FHI-aims are likely important for
          your particular application. A partial list of references is given at the end of
          this file. Thank you for giving credit to the authors of these developments.

          For any questions about FHI-aims, please visit our slack channel at

            https://fhi-aims.slack.com

          and our main development and support site at

            https://aims-git.rz-berlin.mpg.de .

          The latter site, in particular, has a wiki to collect information, as well
          as an issue tracker to log discussions, suggest improvements, and report issues
          or bugs. https://aims-git.rz-berlin.mpg.de is also the main development site
          of the project and all new and updated code versions can be obtained there.
          Please send an email to aims-coordinators@fhi-berlin.mpg.de and we will add
          you to these sites. They are for you and everyone is welcome there.

------------------------------------------------------------



  Date     :  20210705, Time     :  093958.959
  Time zero on CPU 1             :   0.501730000000000E-01  s.
  Internal wall clock time zero  :           394709998.959  s.

  FHI-aims created a unique identifier for this run for later identification
  aims_uuid : AE0D2FDE-43F5-4028-AF4E-BEF9F3A3C9E5

  Build configuration of the current instance of FHI-aims
  -------------------------------------------------------
  FHI-aims version      : 210513
  Commit number         : 300bfe3f4
  CMake host system     : Linux-4.12.14-122.63-default
  CMake version         : 3.5.2
  Fortran compiler      : /mpcdf/soft/SLE_12/packages/x86_64/intel_parallel_studio/2020.1/compilers_and_libraries_2020.1.217/linux/mpi/intel64/bin/mpiifort (Intel) version 19.1.0.20200306
  Fortran compiler flags: -O3 -ip -fp-model precise
  C compiler            : /mpcdf/soft/SLE_12/packages/x86_64/intel/19.1.1/bin/icc (Intel) version 19.1.0.20200306
  C compiler flags      : -O3 -ip -fp-model precise -std=gnu99
  C++ compiler          : /mpcdf/soft/SLE_12/packages/x86_64/intel/19.1.1/bin/icpc (Intel) version 19.1.0.20200306
  C++ compiler flags    : -O3 -ip -fp-model precise -std=gnu99
  Using MPI
  Using ScaLAPACK
  Using LibXC
  Using i-PI
  Using RLSY
  Linking against: /mpcdf/soft/SLE_12/packages/x86_64/intel_parallel_studio/2020.1/mkl/lib/intel64/libmkl_intel_lp64.so
                   /mpcdf/soft/SLE_12/packages/x86_64/intel_parallel_studio/2020.1/mkl/lib/intel64/libmkl_sequential.so
                   /mpcdf/soft/SLE_12/packages/x86_64/intel_parallel_studio/2020.1/mkl/lib/intel64/libmkl_core.so
                   /mpcdf/soft/SLE_12/packages/x86_64/intel_parallel_studio/2020.1/mkl/lib/intel64/libmkl_blacs_intelmpi_lp64.so
                   /mpcdf/soft/SLE_12/packages/x86_64/intel_parallel_studio/2020.1/mkl/lib/intel64/libmkl_scalapack_lp64.so

  Using       40 parallel tasks.
  Task        0 on host co2212 reporting.
  Task        1 on host co2212 reporting.
  Task        2 on host co2212 reporting.
  Task        3 on host co2212 reporting.
  Task        4 on host co2212 reporting.
  Task        5 on host co2212 reporting.
  Task        6 on host co2212 reporting.
  Task        7 on host co2212 reporting.
  Task        8 on host co2212 reporting.
  Task        9 on host co2212 reporting.
  Task       10 on host co2212 reporting.
  Task       11 on host co2212 reporting.
  Task       12 on host co2212 reporting.
  Task       13 on host co2212 reporting.
  Task       14 on host co2212 reporting.
  Task       15 on host co2212 reporting.
  Task       16 on host co2212 reporting.
  Task       17 on host co2212 reporting.
  Task       18 on host co2212 reporting.
  Task       19 on host co2212 reporting.
  Task       20 on host co2212 reporting.
  Task       21 on host co2212 reporting.
  Task       22 on host co2212 reporting.
  Task       23 on host co2212 reporting.
  Task       24 on host co2212 reporting.
  Task       25 on host co2212 reporting.
  Task       26 on host co2212 reporting.
  Task       27 on host co2212 reporting.
  Task       28 on host co2212 reporting.
  Task       29 on host co2212 reporting.
  Task       30 on host co2212 reporting.
  Task       31 on host co2212 reporting.
  Task       32 on host co2212 reporting.
  Task       33 on host co2212 reporting.
  Task       34 on host co2212 reporting.
  Task       35 on host co2212 reporting.
  Task       36 on host co2212 reporting.
  Task       37 on host co2212 reporting.
  Task       38 on host co2212 reporting.
  Task       39 on host co2212 reporting.

  Performing system and environment tests:
  | Environment variable OMP_NUM_THREADS correctly set to 1.
  | Checking for ScaLAPACK...
  | Testing pdtran()...
  | All pdtran() tests passed.

  Obtaining array dimensions for all initial allocations:
  
  -----------------------------------------------------------------------
  Parsing control.in (first pass over file, find array dimensions only).
  The contents of control.in will be repeated verbatim below
  unless switched off by setting 'verbatim_writeout .false.' .
  in the first line of control.in .
  -----------------------------------------------------------------------
  
  #Physical settings
    xc            pw-lda
    spin          none
    relativistic  atomic_zora scalar
    vdw_correction_hirshfeld
  
  ################################################################################
  #
  #  FHI-aims code project
  #  VB, Fritz-Haber Institut, 2009
  #
  #  Suggested "light" defaults for C atom (to be pasted into control.in file)
  #  Be sure to double-check any results obtained with these settings for post-processing,
  #  e.g., with the "tight" defaults and larger basis sets.
  #
  ################################################################################
    species        C
  #     global species definitions
      nucleus             6
      mass                12.0107
  #
      l_hartree           4
  #
      cut_pot             3.5  1.5  1.0
      basis_dep_cutoff    1e-4
  #
      radial_base         34 5.0
      radial_multiplier   1
      angular_grids specified
        division   0.3326   50
        division   0.5710  110
        division   0.7727  194
        division   0.8772  302
  #      division   0.9334  434
  #      division   0.9625  590
  #      division   0.9924  770
  #      division   1.0230  974
  #      division   1.4589 1202
  #     outer_grid  974
       outer_grid 302
  ################################################################################
  #
  #  Definition of "minimal" basis
  #
  ################################################################################
  #     valence basis states
      valence      2  s   2.
      valence      2  p   2.
  #     ion occupancy
      ion_occ      2  s   1.
      ion_occ      2  p   1.
  ################################################################################
  #
  #  Suggested additional basis functions. For production calculations,
  #  uncomment them one after another (the most important basis functions are
  #  listed first).
  #
  #  Constructed for dimers: 1.0 A, 1.25 A, 1.5 A, 2.0 A, 3.0 A
  #
  ################################################################################
  #  "First tier" - improvements: -1214.57 meV to -155.61 meV
       hydro 2 p 1.7
       hydro 3 d 6
       hydro 2 s 4.9
  #  "Second tier" - improvements: -67.75 meV to -5.23 meV
  #     hydro 4 f 9.8
  #     hydro 3 p 5.2
  #     hydro 3 s 4.3
  #     hydro 5 g 14.4
  #     hydro 3 d 6.2
  #  "Third tier" - improvements: -2.43 meV to -0.60 meV
  #     hydro 2 p 5.6
  #     hydro 2 s 1.4
  #     hydro 3 d 4.9
  #     hydro 4 f 11.2
  #  "Fourth tier" - improvements: -0.39 meV to -0.18 meV
  #     hydro 2 p 2.1
  #     hydro 5 g 16.4
  #     hydro 4 d 13.2
  #     hydro 3 s 13.6
  #     hydro 4 f 17.6
  #  Further basis functions - improvements: -0.08 meV and below
  #     hydro 3 s 2
  #     hydro 3 p 6
  #     hydro 4 d 20
  ################################################################################
  ################################################################################
  #
  #  FHI-aims code project
  #  VB, Fritz-Haber Institut, 2009
  #
  #  Suggested "light" defaults for H atom (to be pasted into control.in file)
  #  Be sure to double-check any results obtained with these settings for post-processing,
  #  e.g., with the "tight" defaults and larger basis sets.
  #
  ################################################################################
    species        H
  #     global species definitions
      nucleus             1
      mass                1.00794
  #
      l_hartree           4
  #
      cut_pot             3.5  1.5  1.0
      basis_dep_cutoff    1e-4
  #
      radial_base         24 5.0
      radial_multiplier   1
      angular_grids       specified
        division   0.2421   50
        division   0.3822  110
        division   0.4799  194
        division   0.5341  302
  #      division   0.5626  434
  #      division   0.5922  590
  #      division   0.6542  770
  #      division   0.6868 1202
  #      outer_grid  770
        outer_grid  302
  ################################################################################
  #
  #  Definition of "minimal" basis
  #
  ################################################################################
  #     valence basis states
      valence      1  s   1.
  #     ion occupancy
      ion_occ      1  s   0.5
  ################################################################################
  #
  #  Suggested additional basis functions. For production calculations,
  #  uncomment them one after another (the most important basis functions are
  #  listed first).
  #
  #  Basis constructed for dimers: 0.5 A, 0.7 A, 1.0 A, 1.5 A, 2.5 A
  #
  ################################################################################
  #  "First tier" - improvements: -1014.90 meV to -62.69 meV
       hydro 2 s 2.1
       hydro 2 p 3.5
  #  "Second tier" - improvements: -12.89 meV to -1.83 meV
  #     hydro 1 s 0.85
  #     hydro 2 p 3.7
  #     hydro 2 s 1.2
  #     hydro 3 d 7
  #  "Third tier" - improvements: -0.25 meV to -0.12 meV
  #     hydro 4 f 11.2
  #     hydro 3 p 4.8
  #     hydro 4 d 9
  #     hydro 3 s 3.2
  
  
  ################################################################################
  #
  #  FHI-aims code project
  #  VB, Fritz-Haber Institut, 2009
  #
  #  Suggested "light" defaults for Ag atom (to be pasted into control.in file)
  #  Be sure to double-check any results obtained with these settings for post-processing,
  #  e.g., with the "tight" defaults and larger basis sets.
  #
  ################################################################################
    species        Ag
  #     global species definitions
    # hirshfeld_param     122 15.4 2.57
  
      nucleus             47
      mass                107.8682
  #
      l_hartree           6
  #
      cut_pot             3.5  1.5  1.0
      basis_dep_cutoff    1e-4
  #
      radial_base         62 5.0
      radial_multiplier   1
      angular_grids specified
        division   0.5617   50
        division   0.9788  110
        division   1.2700  194
        division   1.5678  302
  #      division   2.1195  434
  #      division   2.1949  590
  #      division   2.2741  770
  #      division   2.8497 1202
  #      outer_grid  974
        outer_grid  302
  ################################################################################
  #
  #  Definition of "minimal" basis
  #
  ################################################################################
  #     valence basis states
      valence      5  s   1.
      valence      4  p   6.
      valence      4  d  10.
  #     ion occupancy
      ion_occ     5  s   0.
      ion_occ     4  p   6.
      ion_occ     4  d   9.
  ################################################################################
  #
  #  Suggested additional basis functions. For production calculations,
  #  uncomment them one after another (the most important basis functions are
  #  listed first).
  #
  #  Constructed for dimers: 2.1 A, 2.45 A, 3.00 A, 4.00 A
  #
  ################################################################################
  #  "First tier" - max. impr. -144.99  meV, min. impr. -3.42 meV
       ionic 5 p auto
       hydro 4 f 7.6
       hydro 3 s 2.6
  #     hydro 5 g 9.8
       hydro 4 d 8.4
  #  "Second tier" - max. impr. -3.10  meV, min. impr. -0.64 meV
  #     hydro 5 f 16.8
  #     hydro 6 h 13.2
  #     hydro 4 p 5
  #     hydro 4 d 4.3
  #     hydro 5 s 17.2
  #  "Third tier" - max. impr. -0.48  meV, min. impr. -0.12 meV
  #     hydro 4 f 19.2
  #     hydro 5 f 8.4
  #     hydro 6 p 12
  #     hydro 5 g 12.8
  #     hydro 5 d 8.4
  #     hydro 5 s 5.8
  #     hydro 6 h 15.2
  
  
  
  compute_forces .true.
  final_forces_cleaned .true.
  DFPT polarizability
  
  -----------------------------------------------------------------------
  Completed first pass over input file control.in .
  -----------------------------------------------------------------------
  
  
  -----------------------------------------------------------------------
  Parsing geometry.in (first pass over file, find array dimensions only).
  The contents of geometry.in will be repeated verbatim below
  unless switched off by setting 'verbatim_writeout .false.' .
  in the first line of geometry.in .
  -----------------------------------------------------------------------
  
  #
  # temporary structure-file for finite-difference calculation of forces
  # displacement  -0.0025 of \# atom     2 direction     2
  #
  atom   -0.00023400   -0.27359764   -4.54653000   C
  atom    1.20114016   -0.96717833   -4.54653000   C
  atom    1.20114016   -2.35438967   -4.54903000   C
  atom   -0.00023400   -3.04797036   -4.54653000   C
  atom   -1.20160816   -2.35438967   -4.54653000   C
  atom   -1.20160816   -0.96717833   -4.54653000   C
  atom   -0.00023400    0.82013270   -4.54653000   H
  atom    2.14833467   -0.42030956   -4.54653000   H
  atom    2.14833467   -2.90125844   -4.54653000   H
  atom   -0.00023400   -4.14170070   -4.54653000   H
  atom   -2.14880267   -2.90125844   -4.54653000   H
  atom   -2.14880267   -0.42030956   -4.54653000   H
  
  -----------------------------------------------------------------------
  Completed first pass over input file geometry.in .
  -----------------------------------------------------------------------
  

  Basic array size parameters:
  | Number of species                 :        3
  | Number of atoms                   :       12
  | Max. basis fn. angular momentum   :        3
  | Max. atomic/ionic basis occupied n:        5
  | Max. number of basis fn. types    :        3
  | Max. radial fns per species/type  :       10
  | Max. logarithmic grid size        :     1446
  | Max. radial integration grid size :       62
  | Max. angular integration grid size:      302
  | Max. angular grid division number :        8
  | Radial grid for Hartree potential :     1446
  | Number of spin channels           :        1

------------------------------------------------------------
          Reading file control.in.
------------------------------------------------------------
  XC: Using Perdew-Wang parametrisation of Ceperley-Alder LDA.
  Spin treatment: No spin polarisation.
  Scalar relativistic treatment of kinetic energy: on-site free-atom approximation to ZORA.
 
  Reading configuration options for species C                   .
  | Found nuclear charge :   6.0000
  | Found atomic mass :    12.0107000000000      amu
  | Found l_max for Hartree potential  :   4
  | Found cutoff potl. onset [A], width [A], scale factor :    3.50000    1.50000    1.00000
  | Threshold for basis-dependent cutoff potential is   0.100000E-03
  | Found data for basic radial integration grid :    34 points, outermost radius =    5.000 A
  | Found multiplier for basic radial grid :   1
  | Found angular grid specification: user-specified.
  | Specified grid contains     5 separate shells.
  | Check grid settings after all constraints further below.
  | Found free-atom valence shell :  2 s   2.000
  | Found free-atom valence shell :  2 p   2.000
  | Found free-ion valence shell :  2 s   1.000
  | Found free-ion valence shell :  2 p   1.000
  | Found hydrogenic basis function :  2 p   1.700
  | Found hydrogenic basis function :  3 d   6.000
  | Found hydrogenic basis function :  2 s   4.900
  Species C                   : Missing cutoff potential type.
  Defaulting to exp(1/x)/(1-x)^2 type cutoff potential.
  Species C : No 'logarithmic' tag. Using default grid for free atom:
  | Default logarithmic grid data [bohr] : 0.1000E-03 0.1000E+03 0.1012E+01
  Species C : On-site basis accuracy parameter (for Gram-Schmidt orthonormalisation) not specified.
  Using default value basis_acc =  0.1000000E-03.
  Species C                   : Using default innermost maximum threshold i_radial=  2 for radial functions.
  Species C                   : Default cutoff onset for free atom density etc. : 0.35000000E+01 AA.
  Species C                   : Basic radial grid will be enhanced according to radial_multiplier =   1, to contain    34 grid points.
 
  Reading configuration options for species H                   .
  | Found nuclear charge :   1.0000
  | Found atomic mass :    1.00794000000000      amu
  | Found l_max for Hartree potential  :   4
  | Found cutoff potl. onset [A], width [A], scale factor :    3.50000    1.50000    1.00000
  | Threshold for basis-dependent cutoff potential is   0.100000E-03
  | Found data for basic radial integration grid :    24 points, outermost radius =    5.000 A
  | Found multiplier for basic radial grid :   1
  | Found angular grid specification: user-specified.
  | Specified grid contains     5 separate shells.
  | Check grid settings after all constraints further below.
  | Found free-atom valence shell :  1 s   1.000
  | Found free-ion valence shell :  1 s   0.500
  | Found hydrogenic basis function :  2 s   2.100
  | Found hydrogenic basis function :  2 p   3.500
  Species H                   : Missing cutoff potential type.
  Defaulting to exp(1/x)/(1-x)^2 type cutoff potential.
  Species H : No 'logarithmic' tag. Using default grid for free atom:
  | Default logarithmic grid data [bohr] : 0.1000E-03 0.1000E+03 0.1012E+01
  Species H : On-site basis accuracy parameter (for Gram-Schmidt orthonormalisation) not specified.
  Using default value basis_acc =  0.1000000E-03.
  Species H                   : Using default innermost maximum threshold i_radial=  2 for radial functions.
  Species H                   : Default cutoff onset for free atom density etc. : 0.35000000E+01 AA.
  Species H                   : Basic radial grid will be enhanced according to radial_multiplier =   1, to contain    24 grid points.
 
  Reading configuration options for species Ag                  .
  | Found nuclear charge :  47.0000
  | Found atomic mass :    107.868200000000      amu
  | Found l_max for Hartree potential  :   6
  | Found cutoff potl. onset [A], width [A], scale factor :    3.50000    1.50000    1.00000
  | Threshold for basis-dependent cutoff potential is   0.100000E-03
  | Found data for basic radial integration grid :    62 points, outermost radius =    5.000 A
  | Found multiplier for basic radial grid :   1
  | Found angular grid specification: user-specified.
  | Specified grid contains     5 separate shells.
  | Check grid settings after all constraints further below.
  | Found free-atom valence shell :  5 s   1.000
  | Found free-atom valence shell :  4 p   6.000
  | Found free-atom valence shell :  4 d  10.000
  | Found free-ion valence shell :  5 s   0.000
  | Found free-ion valence shell :  4 p   6.000
  | Found free-ion valence shell :  4 d   9.000
  | Found ionic basis function :  5 p , default cutoff radius.
  | Found hydrogenic basis function :  4 f   7.600
  | Found hydrogenic basis function :  3 s   2.600
  | Found hydrogenic basis function :  4 d   8.400
  Species Ag                  : Missing cutoff potential type.
  Defaulting to exp(1/x)/(1-x)^2 type cutoff potential.
  Species Ag: No 'logarithmic' tag. Using default grid for free atom:
  | Default logarithmic grid data [bohr] : 0.1000E-03 0.1000E+03 0.1012E+01
  | Will include ionic basis functions of  2.0-fold positive Ag                   ion.
  Species Ag: On-site basis accuracy parameter (for Gram-Schmidt orthonormalisation) not specified.
  Using default value basis_acc =  0.1000000E-03.
  Species Ag                  : Using default innermost maximum threshold i_radial=  2 for radial functions.
  Species Ag                  : Default cutoff onset for free atom density etc. : 0.35000000E+01 AA.
  Species Ag                  : Basic radial grid will be enhanced according to radial_multiplier =   1, to contain    62 grid points.
  Forces will be computed.
  Cleaning forces before final output.
  DFPT calculation will begin after the DFT/HF calculation.
 
  Finished reading input file 'control.in'.
 
------------------------------------------------------------


------------------------------------------------------------
          Reading geometry description geometry.in.
------------------------------------------------------------
  | The smallest distance between any two atoms is         1.09372889 AA.
  | The first atom of this pair is atom number                      5 .
  | The second atom of this pair is atom number                    11 .
  Input structure read successfully.
  The structure contains       12 atoms,  and a total of         42.000 electrons.

  Input geometry:
  | No unit cell requested.
  | Atomic structure:
  |       Atom                x [A]            y [A]            z [A]
  |    1: Species C            -0.00023400       -0.27359764       -4.54653000
  |    2: Species C             1.20114016       -0.96717833       -4.54653000
  |    3: Species C             1.20114016       -2.35438967       -4.54903000
  |    4: Species C            -0.00023400       -3.04797036       -4.54653000
  |    5: Species C            -1.20160816       -2.35438967       -4.54653000
  |    6: Species C            -1.20160816       -0.96717833       -4.54653000
  |    7: Species H            -0.00023400        0.82013270       -4.54653000
  |    8: Species H             2.14833467       -0.42030956       -4.54653000
  |    9: Species H             2.14833467       -2.90125844       -4.54653000
  |   10: Species H            -0.00023400       -4.14170070       -4.54653000
  |   11: Species H            -2.14880267       -2.90125844       -4.54653000
  |   12: Species H            -2.14880267       -0.42030956       -4.54653000

 
  Finished reading input file 'control.in'.
 

------------------------------------------------------------
          Reading geometry description geometry.in.
------------------------------------------------------------
 
  Consistency checks for stacksize environment parameter are next.
 
  | Maximum stacksize for task 0: unlimited
  | Maximum stacksize for task 1: unlimited
  | Maximum stacksize for task 2: unlimited
  | Maximum stacksize for task 3: unlimited
  | Maximum stacksize for task 4: unlimited
  | Maximum stacksize for task 5: unlimited
  | Maximum stacksize for task 6: unlimited
  | Maximum stacksize for task 7: unlimited
  | Maximum stacksize for task 8: unlimited
  | Maximum stacksize for task 9: unlimited
  | Maximum stacksize for task 10: unlimited
  | Maximum stacksize for task 11: unlimited
  | Maximum stacksize for task 12: unlimited
  | Maximum stacksize for task 13: unlimited
  | Maximum stacksize for task 14: unlimited
  | Maximum stacksize for task 15: unlimited
  | Maximum stacksize for task 16: unlimited
  | Maximum stacksize for task 17: unlimited
  | Maximum stacksize for task 18: unlimited
  | Maximum stacksize for task 19: unlimited
  | Maximum stacksize for task 20: unlimited
  | Maximum stacksize for task 21: unlimited
  | Maximum stacksize for task 22: unlimited
  | Maximum stacksize for task 23: unlimited
  | Maximum stacksize for task 24: unlimited
  | Maximum stacksize for task 25: unlimited
  | Maximum stacksize for task 26: unlimited
  | Maximum stacksize for task 27: unlimited
  | Maximum stacksize for task 28: unlimited
  | Maximum stacksize for task 29: unlimited
  | Maximum stacksize for task 30: unlimited
  | Maximum stacksize for task 31: unlimited
  | Maximum stacksize for task 32: unlimited
  | Maximum stacksize for task 33: unlimited
  | Maximum stacksize for task 34: unlimited
  | Maximum stacksize for task 35: unlimited
  | Maximum stacksize for task 36: unlimited
  | Maximum stacksize for task 37: unlimited
  | Maximum stacksize for task 38: unlimited
  | Maximum stacksize for task 39: unlimited
  | Current stacksize for task 0: unlimited
  | Current stacksize for task 1: unlimited
  | Current stacksize for task 2: unlimited
  | Current stacksize for task 3: unlimited
  | Current stacksize for task 4: unlimited
  | Current stacksize for task 5: unlimited
  | Current stacksize for task 6: unlimited
  | Current stacksize for task 7: unlimited
  | Current stacksize for task 8: unlimited
  | Current stacksize for task 9: unlimited
  | Current stacksize for task 10: unlimited
  | Current stacksize for task 11: unlimited
  | Current stacksize for task 12: unlimited
  | Current stacksize for task 13: unlimited
  | Current stacksize for task 14: unlimited
  | Current stacksize for task 15: unlimited
  | Current stacksize for task 16: unlimited
  | Current stacksize for task 17: unlimited
  | Current stacksize for task 18: unlimited
  | Current stacksize for task 19: unlimited
  | Current stacksize for task 20: unlimited
  | Current stacksize for task 21: unlimited
  | Current stacksize for task 22: unlimited
  | Current stacksize for task 23: unlimited
  | Current stacksize for task 24: unlimited
  | Current stacksize for task 25: unlimited
  | Current stacksize for task 26: unlimited
  | Current stacksize for task 27: unlimited
  | Current stacksize for task 28: unlimited
  | Current stacksize for task 29: unlimited
  | Current stacksize for task 30: unlimited
  | Current stacksize for task 31: unlimited
  | Current stacksize for task 32: unlimited
  | Current stacksize for task 33: unlimited
  | Current stacksize for task 34: unlimited
  | Current stacksize for task 35: unlimited
  | Current stacksize for task 36: unlimited
  | Current stacksize for task 37: unlimited
  | Current stacksize for task 38: unlimited
  | Current stacksize for task 39: unlimited
 
  Consistency checks for the contents of control.in are next.
 
  MPI_IN_PLACE appears to work with this MPI implementation.
  | Keeping use_mpi_in_place .true. (see manual).
  Target number of points in a grid batch is not set. Defaulting to  100
  Method for grid partitioning is not set. Defaulting to parallel hash+maxmin partitioning.
  Batch size limit is not set. Defaulting to    200
  By default, will store active basis functions for each batch.
  If in need of memory, prune_basis_once .false. can be used to disable this option.
  communication_type for Hartree potential was not specified.
  Defaulting to calc_hartree .
  Defaulting to Pulay charge density mixer.
  Pulay mixer: Number of relevant iterations not set.
  Defaulting to    8 iterations.
  Pulay mixer: Number of initial linear mixing iterations not set.
  Defaulting to    0 iterations.
  Work space size for distributed Hartree potential not set.
  Defaulting to   0.200000E+03 MB.
  Mixing parameter for charge density mixing has not been set.
  Using default: charge_mix_param =     0.0500.
  The mixing parameter will be adjusted in iteration number     2 of the first full s.c.f. cycle only.
  Algorithm-dependent basis array size parameters:
  | n_max_pulay                         :        8
  Maximum number of self-consistency iterations not provided.
  Presetting  1000 iterations.
  Presetting      1001 iterations before the initial mixing cycle
  is restarted anyway using the sc_init_iter criterion / keyword.
  Presetting a factor      1.000 between actual scf density residual
  and density convergence criterion sc_accuracy_rho below which sc_init_iter
  takes no effect.
 * No s.c.f. convergence criteria (sc_accuracy_*) were provided in control.in.
 * The run will proceed with a reasonable default guess, but please check whether.
 * the s.c.f. cycles seem to take too much or too little time.
  Geometry relaxation not requested: no relaxation will be performed.
  Forces evaluation will include force correction term due to incomplete self-consistency (default).
 * Notice: The s.c.f. convergence criterion sc_accuracy_rho was not provided.
 * We used to stop in this case, and ask the user to provide reasonable
 * scf convergence criteria. However, this led some users to employ criteria
 * that led to extremely long run times, e.g., for simple relaxation.
 * We now preset a default value for sc_accuracy_rho if it is not set.
 * You may still wish to check if this setting is too tight or too loose for your needs.
 * Based on n_atoms and forces and force-correction status, FHI-aims chose sc_accuracy_rho =  0.113137E-04 .
  Force calculation: scf convergence accuracy of forces not set.
  Defaulting to 'sc_accuracy_forces not_checked'.
  Handling of forces: Unphysical translation and rotation will be removed from forces.
  No accuracy limit for integral partition fn. given. Defaulting to  0.1000E-14.
  No threshold value for u(r) in integrations given. Defaulting to  0.1000E-05.
  No occupation type (smearing scheme) given. Defaulting to Gaussian broadening, width =  0.1000E-01 eV.
  The width will be adjusted in iteration number     2 of the first full s.c.f. cycle only.
  S.C.F. convergence parameters will be adjusted in iteration number     2 of the first full s.c.f. cycle only.
  No accuracy for occupation numbers given. Defaulting to  0.1000E-12.
  No threshold value for occupation numbers given. Defaulting to  0.0000E+00.
  No accuracy for fermi level given. Defaulting to  0.1000E-19.
  Maximum # of iterations to find E_F not set. Defaulting to  200.
  Preferred method for the eigenvalue solver ('KS_method') not specified in 'control.in'.
  Calling BLACS routine to test compilation state
  Since ScaLAPACK support is enabled, defaulting to ELPA (via ELSI).
  Will not use alltoall communication since running on < 1024 CPUs.
  Threshold for basis singularities not set.
  Default threshold for basis singularities:  0.1000E-04
  partition_type (choice of integration weights) for integrals was not specified.
  | Using a version of the partition function of Stratmann and coworkers ('stratmann_sparse').
  | At each grid point, the set of atoms used to build the partition table is smoothly restricted to
  | only those atoms whose free-atom density would be non-zero at that grid point.
  Partitioning for Hartree potential was not defined. Using partition_type for integrals.
  | Adjusted default value of keyword multip_moments_threshold to:       0.10000000E-11
  | This value may affect high angular momentum components of the Hartree potential in periodic systems.
  No q(lm)/r^(l+1) cutoff set for long-range Hartree potential.
  | Using default value of  0.100000E-09 .
  | Verify using the multipole_threshold keyword.
  Defaulting to new monopole extrapolation.
  Density update method: automatic selection selected.
  WARNING: Switching off the compensation of charge integration errors
  on the 3D integration grid, since you have requested a DFPT calculation.
  This is unfortunately necessary since "compensate_multipole_errors" is
  not yet implemented for DFPT.
  Use the "compensate_multipole_errors" flag to overwrite this behaviour.
  Set 'collect_eigenvectors' to be '.true.' for use_density_matrix .false.
 
  Consistency checks for the contents of geometry.in are next.
 
  Number of empty states per atom not set in control.in .
  | Since you are using a method that relies on the unoccupied spectrum
  | (MP2,GW,RPA et al.), will use the full Hamiltonian size (see below)
  | as the max. possible number of states (occupied plus empty).

  Structure-dependent array size parameters: 
  | Maximum number of distinct radial functions  :       23
  | Maximum number of basis functions            :      114
  | Number of Kohn-Sham states (occupied + empty):      114
------------------------------------------------------------

------------------------------------------------------------
          Preparing all fixed parts of the calculation.
------------------------------------------------------------
  Determining machine precision:
    2.225073858507201E-308
  Setting up grids for atomic and cluster calculations.

  Creating wave function, potential, and density for free atoms.

  Species: C

  List of occupied orbitals and eigenvalues:
    n    l              occ      energy [Ha]    energy [eV]
    1    0           2.0000        -9.952440      -270.8197
    2    0           2.0000        -0.499232       -13.5848
    2    1           2.0000        -0.196847        -5.3565


  Species: H

  List of occupied orbitals and eigenvalues:
    n    l              occ      energy [Ha]    energy [eV]
    1    0           1.0000        -0.232378        -6.3233


  Species: Ag

  List of occupied orbitals and eigenvalues:
    n    l              occ      energy [Ha]    energy [eV]
    1    0           2.0000      -957.142604    -26045.1754
    2    0           2.0000      -137.629864     -3745.0992
    3    0           2.0000       -25.099958      -683.0046
    4    0           2.0000        -3.487154       -94.8903
    5    0           1.0000        -0.166341        -4.5264
    2    1           6.0000      -123.488145     -3360.2834
    3    1           6.0000       -20.483893      -557.3951
    4    1           6.0000        -2.148884       -58.4741
    3    2          10.0000       -13.192778      -358.9938
    4    2          10.0000        -0.275951        -7.5090


  Adding cutoff potential to free-atom effective potential.
  Creating fixed part of basis set: Ionic, confined, hydrogenic.
 
  C                    hydrogenic:
 
  List of hydrogenic basis orbitals: 
    n    l      effective z      eigenvalue [eV]  inner max. [A]     outer max. [A]     outer radius [A]   
    2    1         1.700000        -9.7616           1.230570           1.230570           4.607917
    3    2         6.000000       -54.4224           0.792453           0.792453           3.883070
    2    0         4.900000       -81.6679           0.082559           0.562749           3.078220
 
 
  H                    hydrogenic:
 
  List of hydrogenic basis orbitals: 
    n    l      effective z      eigenvalue [eV]  inner max. [A]     outer max. [A]     outer radius [A]   
    2    0         2.100000       -14.9728           0.193243           1.317208           4.583499
    2    1         3.500000       -41.6669           0.602369           0.602369           3.723403
 
 
  Ag                   ion:

  List of free ionic orbitals and eigenvalues:
    n    l      energy [Ha]    energy [eV]
    1    0      -958.009288    -26068.7591
    2    0      -138.477895     -3768.1752
    3    0       -25.944611      -705.9888
    4    0        -4.322659      -117.6255
    2    1      -124.335790     -3383.3490
    3    1       -21.328427      -580.3760
    4    1        -2.979395       -81.0735
    3    2       -14.037265      -381.9734
    4    2        -1.071315       -29.1520


  List of ionic basis orbitals and eigenvalues:
    n    l      energy [Ha]    energy [eV]    outer radius [A]
    5    1        -0.530848       -14.4451       4.586811

 
  Ag                   hydrogenic:
 
  List of hydrogenic basis orbitals: 
    n    l      effective z      eigenvalue [eV]  inner max. [A]     outer max. [A]     outer radius [A]   
    4    3         7.600000       -49.1160           1.110807           1.110807           4.421638
    3    0         2.600000        -9.1732           0.149597           2.489137           4.643229
    4    2         8.400000       -60.0006           0.428073           1.334373           4.367912
 
  Creating atomic-like basis functions for current effective potential.

  Species C                   :

  List of atomic basis orbitals and eigenvalues:
    n    l      energy [Ha]    energy [eV]    outer radius [A]
    1    0        -9.952440      -270.8197       1.934409
    2    0        -0.499232       -13.5848       4.496620
    2    1        -0.196847        -5.3565       4.551928


  Species H                   :

  List of atomic basis orbitals and eigenvalues:
    n    l      energy [Ha]    energy [eV]    outer radius [A]
    1    0        -0.232378        -6.3233       4.527807


  Species Ag                  :

  List of atomic basis orbitals and eigenvalues:
    n    l      energy [Ha]    energy [eV]    outer radius [A]
    1    0      -957.142604    -26045.1754       0.218529
    2    0      -137.629864     -3745.0992       0.595480
    3    0       -25.099958      -683.0046       1.384220
    4    0        -3.487154       -94.8903       3.462568
    5    0        -0.166341        -4.5264       4.586811
    2    1      -123.488145     -3360.2834       0.610219
    3    1       -20.483893      -557.3951       1.489569
    4    1        -2.148884       -58.4741       4.058994
    3    2       -13.192778      -358.9938       1.724930
    4    2        -0.275951        -7.5090       4.531079

  Assembling full basis from fixed parts.
  | Species C :   atomic orbital   1 s accepted.
  | Species C :    hydro orbital   2 s accepted.
  | Species C :   atomic orbital   2 s accepted.
  | Species C :   atomic orbital   2 p accepted.
  | Species C :    hydro orbital   2 p accepted.
  | Species C :    hydro orbital   3 d accepted.
  | Species H :   atomic orbital   1 s accepted.
  | Species H :    hydro orbital   2 s accepted.
  | Species H :    hydro orbital   2 p accepted.
  | Species Ag :   atomic orbital   1 s accepted.
  | Species Ag :   atomic orbital   2 s accepted.
  | Species Ag :   atomic orbital   3 s accepted.
  | Species Ag :   atomic orbital   4 s accepted.
  | Species Ag :   atomic orbital   5 s accepted.
  | Species Ag :    hydro orbital   3 s accepted.
  | Species Ag :   atomic orbital   2 p accepted.
  | Species Ag :   atomic orbital   3 p accepted.
  | Species Ag :   atomic orbital   4 p accepted.
  | Species Ag :    ionic orbital   5 p accepted.
  | Species Ag :   atomic orbital   3 d accepted.
  | Species Ag :    hydro orbital   4 d accepted.
  | Species Ag :   atomic orbital   4 d accepted.
  | Species Ag :    hydro orbital   4 f accepted.
 
  Basis size parameters after reduction:
  | Total number of radial functions:       23
  | Total number of basis functions :      114
 
  Per-task memory consumption for arrays in subroutine allocate_ext:
  |           8.519168MB.
  Testing on-site integration grid accuracy.
  |  Species  Function  <phi|h_atom|phi> (log., in eV)  <phi|h_atom|phi> (rad., in eV)
           1        1               -270.8196846608               -270.8196521136
           1        2                -10.5732782379                -10.5732587795
           1        3                 16.3341762879                 16.3303421581
           1        4                 -5.3580915186                 -5.3594941248
           1        5                  8.5322326461                  8.5082139888
           1        6                 27.4915615315                 27.4915696770
           2        7                 -6.3246251765                 -6.3233331181
           2        8                 14.1313906092                 14.1372326594
           2        9                 25.3615426212                 25.3616852158
           3       10             -26045.1754166020             -26045.1283337768 ***
           3       11              -3745.0991522527              -3745.0984357936
           3       12               -683.0046001409               -683.0045719798
           3       13                -94.8903018342                -94.8902994702
           3       14                 -4.5393920186                 -4.5500388404
           3       15                  6.3761442099                  6.2454543484 ***
           3       16              -3360.2833919951              -3360.2833898642
           3       17               -557.3951003218               -557.3950976601
           3       18                -58.4741016013                -58.4741005184
           3       19                  1.0420005936                  1.0366614909
           3       20               -358.9937617721               -358.9937609032
           3       21                 17.5754083405                 17.5754868900
           3       22                 -6.2857328967                 -6.2858902696
           3       23                 23.9298026147                 23.9298230637
 * Note: Onsite integrals marked "***" above are less accurate than
 * onsite_accuracy_threshold =    0.03000 eV. Usually, this is harmless.
 * However, one integral did have a negative value. This integral could be important.
 * When in doubt, tighten the "radial" and/or "radial_multiplier" flags to check.

  Preparing densities etc. for the partition functions (integrals / Hartree potential).

  Preparations completed.
  max(cpu_time)          :      0.324 s.
  Wall clock time (cpu1) :      0.334 s.
------------------------------------------------------------

------------------------------------------------------------
          Begin self-consistency loop: Initialization.

          Date     :  20210705, Time     :  093959.359
------------------------------------------------------------

  Initializing index lists of integration centers etc. from given atomic structure:
  | Number of centers in hartree potential         :        12
  | Number of centers in hartree multipole         :        12
  | Number of centers in electron density summation:        12
  | Number of centers in basis integrals           :        12
  | Number of centers in integrals                 :        12
  | Number of centers in hamiltonian               :        12
  * Using 40 tasks for Scalapack Eigenvalue solver.
  Detailed listing of tasks and assigned k-points:
  (for non-periodic systems, the "k-point" denotes an internal label only)
   Task     0 k-point     1 on co2212
   Task     1 k-point     1 on co2212
   Task     2 k-point     1 on co2212
   Task     3 k-point     1 on co2212
   Task     4 k-point     1 on co2212
   Task     5 k-point     1 on co2212
   Task     6 k-point     1 on co2212
   Task     7 k-point     1 on co2212
   Task     8 k-point     1 on co2212
   Task     9 k-point     1 on co2212
   Task    10 k-point     1 on co2212
   Task    11 k-point     1 on co2212
   Task    12 k-point     1 on co2212
   Task    13 k-point     1 on co2212
   Task    14 k-point     1 on co2212
   Task    15 k-point     1 on co2212
   Task    16 k-point     1 on co2212
   Task    17 k-point     1 on co2212
   Task    18 k-point     1 on co2212
   Task    19 k-point     1 on co2212
   Task    20 k-point     1 on co2212
   Task    21 k-point     1 on co2212
   Task    22 k-point     1 on co2212
   Task    23 k-point     1 on co2212
   Task    24 k-point     1 on co2212
   Task    25 k-point     1 on co2212
   Task    26 k-point     1 on co2212
   Task    27 k-point     1 on co2212
   Task    28 k-point     1 on co2212
   Task    29 k-point     1 on co2212
   Task    30 k-point     1 on co2212
   Task    31 k-point     1 on co2212
   Task    32 k-point     1 on co2212
   Task    33 k-point     1 on co2212
   Task    34 k-point     1 on co2212
   Task    35 k-point     1 on co2212
   Task    36 k-point     1 on co2212
   Task    37 k-point     1 on co2212
   Task    38 k-point     1 on co2212
   Task    39 k-point     1 on co2212
  Tasks:    40 split into      8 X      5 BLACS grid
  Calculating block size based on n_basis =          114  max_nprow =            8  max_npcol =            5
  ScaLAPACK block size set to:            8
  Allocating        0.003 MB for ovlp
  Allocating        0.003 MB for ham
  Allocating        0.003 MB for eigenvec
  Required Scalapack workspace - INTEGER:            1  REAL:             1
  Partitioning the integration grid into batches with parallel hashing+maxmin method.
  | Number of batches:      715
  | Maximal batch size:     182
  | Minimal batch size:      24
  | Average batch size:      88.078
  | Standard deviation of batch sizes:      17.933

  Integration load balanced across    40 MPI tasks.
  Work distribution over tasks is as follows:
  Task     0 has       1614 integration points.
  Task     1 has       1575 integration points.
  Task     2 has       1548 integration points.
  Task     3 has       1551 integration points.
  Task     4 has       1554 integration points.
  Task     5 has       1561 integration points.
  Task     6 has       1582 integration points.
  Task     7 has       1535 integration points.
  Task     8 has       1560 integration points.
  Task     9 has       1585 integration points.
  Task    10 has       1643 integration points.
  Task    11 has       1571 integration points.
  Task    12 has       1577 integration points.
  Task    13 has       1577 integration points.
  Task    14 has       1620 integration points.
  Task    15 has       1574 integration points.
  Task    16 has       1637 integration points.
  Task    17 has       1570 integration points.
  Task    18 has       1581 integration points.
  Task    19 has       1569 integration points.
  Task    20 has       1566 integration points.
  Task    21 has       1577 integration points.
  Task    22 has       1553 integration points.
  Task    23 has       1554 integration points.
  Task    24 has       1559 integration points.
  Task    25 has       1577 integration points.
  Task    26 has       1564 integration points.
  Task    27 has       1525 integration points.
  Task    28 has       1632 integration points.
  Task    29 has       1556 integration points.
  Task    30 has       1571 integration points.
  Task    31 has       1567 integration points.
  Task    32 has       1549 integration points.
  Task    33 has       1571 integration points.
  Task    34 has       1629 integration points.
  Task    35 has       1577 integration points.
  Task    36 has       1570 integration points.
  Task    37 has       1562 integration points.
  Task    38 has       1568 integration points.
  Task    39 has       1565 integration points.
  Initializing partition tables, free-atom densities, potentials, etc. across the integration grid (initialize_grid_storage).
  | initialize_grid_storage: Actual outermost partition radius vs. multipole_radius_free
  | (-- VB: in principle, multipole_radius_free should be larger, hence this output)
  | Species        1: Confinement radius =              4.999999999999999 AA, multipole_radius_free =              5.019602836301480 AA.
  | Species        1: outer_partition_radius set to              5.019602836301480 AA .
  | Species        2: Confinement radius =              4.999999999999999 AA, multipole_radius_free =              5.054417573612229 AA.
  | Species        2: outer_partition_radius set to              5.054417573612229 AA .
  | Species        3: Confinement radius =              4.999999999999999 AA, multipole_radius_free =              5.058069901110960 AA.
  | Species        3: outer_partition_radius set to              5.058069901110960 AA .
  | The sparse table of interatomic distances needs          1.64 kbyte instead of         1.15 kbyte of memory.
  | Using the partition_type stratmann_smoother will reduce your memory usage.
  | Net number of integration points:    62976
  | of which are non-zero points    :    54576
  Renormalizing the initial density to the exact electron count on the 3D integration grid.
  | Initial density: Formal number of electrons (from input files) :      42.0000000000
  | Integrated number of electrons on 3D grid     :      41.9999688252
  | Charge integration error                      :      -0.0000311748
  | Normalization factor for density and gradient :       1.0000007423
  Obtaining max. number of non-zero basis functions in each batch (get_n_compute_maxes).
  | Maximal number of non-zero basis functions:      114 in task     0
  | Maximal number of non-zero basis functions:      114 in task     1
  | Maximal number of non-zero basis functions:      114 in task     2
  | Maximal number of non-zero basis functions:      113 in task     3
  | Maximal number of non-zero basis functions:      114 in task     4
  | Maximal number of non-zero basis functions:      114 in task     5
  | Maximal number of non-zero basis functions:      114 in task     6
  | Maximal number of non-zero basis functions:      114 in task     7
  | Maximal number of non-zero basis functions:      114 in task     8
  | Maximal number of non-zero basis functions:      112 in task     9
  | Maximal number of non-zero basis functions:      114 in task    10
  | Maximal number of non-zero basis functions:      114 in task    11
  | Maximal number of non-zero basis functions:      114 in task    12
  | Maximal number of non-zero basis functions:      114 in task    13
  | Maximal number of non-zero basis functions:      114 in task    14
  | Maximal number of non-zero basis functions:      113 in task    15
  | Maximal number of non-zero basis functions:      114 in task    16
  | Maximal number of non-zero basis functions:      114 in task    17
  | Maximal number of non-zero basis functions:      114 in task    18
  | Maximal number of non-zero basis functions:      114 in task    19
  | Maximal number of non-zero basis functions:      114 in task    20
  | Maximal number of non-zero basis functions:      114 in task    21
  | Maximal number of non-zero basis functions:      114 in task    22
  | Maximal number of non-zero basis functions:      114 in task    23
  | Maximal number of non-zero basis functions:      114 in task    24
  | Maximal number of non-zero basis functions:      114 in task    25
  | Maximal number of non-zero basis functions:      114 in task    26
  | Maximal number of non-zero basis functions:      114 in task    27
  | Maximal number of non-zero basis functions:      114 in task    28
  | Maximal number of non-zero basis functions:      114 in task    29
  | Maximal number of non-zero basis functions:      114 in task    30
  | Maximal number of non-zero basis functions:      114 in task    31
  | Maximal number of non-zero basis functions:      114 in task    32
  | Maximal number of non-zero basis functions:      114 in task    33
  | Maximal number of non-zero basis functions:      114 in task    34
  | Maximal number of non-zero basis functions:      114 in task    35
  | Maximal number of non-zero basis functions:      114 in task    36
  | Maximal number of non-zero basis functions:      114 in task    37
  | Maximal number of non-zero basis functions:      114 in task    38
  | Maximal number of non-zero basis functions:      114 in task    39
  Selecting the method for density update.
  Loop over occupied states selected for charge density update.
  Allocating        0.099 MB for KS_eigenvector
  Integrating Hamiltonian matrix: batch-based integration.
  Time summed over all CPUs for integration: real work        0.299 s, elapsed        0.321 s
  Integrating overlap matrix.
  Time summed over all CPUs for integration: real work        0.184 s, elapsed        0.224 s
  Deallocating overlap matrix.

  Updating Kohn-Sham eigenvalues and eigenvectors using ELSI and the ELPA eigensolver.
  Overlap matrix is not singular
  | Lowest and highest eigenvalues :  0.1146E-02,  0.5833E+01
  Finished singularity check of overlap matrix
  | Time :     0.006 s
  Starting ELPA eigensolver
  Finished Cholesky decomposition
  | Time :     0.002 s
  Finished transformation to standard eigenproblem
  | Time :     0.002 s
  Finished solving standard eigenproblem
  | Time :     0.003 s
  Finished back-transformation of eigenvectors
  | Time :     0.001 s

  Obtaining occupation numbers and chemical potential using ELSI.
  | Chemical potential (Fermi level):    -7.67763507 eV
  Writing Kohn-Sham eigenvalues.

  State    Occupation    Eigenvalue [Ha]    Eigenvalue [eV]
      1       2.00000         -10.075578         -274.17043
      2       2.00000         -10.075350         -274.16422
      3       2.00000         -10.075350         -274.16422
      4       2.00000         -10.074894         -274.15180
      5       2.00000         -10.074893         -274.15180
      6       2.00000         -10.074665         -274.14559
      7       2.00000          -0.993755          -27.04145
      8       2.00000          -0.884329          -24.06381
      9       2.00000          -0.884324          -24.06368
     10       2.00000          -0.747015          -20.32730
     11       2.00000          -0.747012          -20.32724
     12       2.00000          -0.660239          -17.96601
     13       2.00000          -0.633548          -17.23972
     14       2.00000          -0.578064          -15.72992
     15       2.00000          -0.568466          -15.46874
     16       2.00000          -0.568459          -15.46856
     17       2.00000          -0.508323          -13.83218
     18       2.00000          -0.498983          -13.57803
     19       2.00000          -0.498975          -13.57779
     20       2.00000          -0.408290          -11.11013
     21       2.00000          -0.408287          -11.11006
     22       0.00000          -0.214999           -5.85043
     23       0.00000          -0.214995           -5.85032
     24       0.00000          -0.072099           -1.96190
     25       0.00000          -0.060998           -1.65985
     26       0.00000          -0.013963           -0.37996
     27       0.00000          -0.013958           -0.37981
     28       0.00000           0.019658            0.53491
     29       0.00000           0.019659            0.53494
     30       0.00000           0.059031            1.60632
     31       0.00000           0.105202            2.86269
     32       0.00000           0.105219            2.86315
     33       0.00000           0.107830            2.93420
     34       0.00000           0.107856            2.93491
     35       0.00000           0.165142            4.49373
     36       0.00000           0.191290            5.20526
     37       0.00000           0.195765            5.32705
     38       0.00000           0.243075            6.61441
     39       0.00000           0.243083            6.61462
     40       0.00000           0.262337            7.13854
     41       0.00000           0.262340            7.13865
     42       0.00000           0.268721            7.31227
     43       0.00000           0.282645            7.69116
     44       0.00000           0.282744            7.69384
     45       0.00000           0.333348            9.07086
     46       0.00000           0.340866            9.27544
     47       0.00000           0.423032           11.51129
     48       0.00000           0.423123           11.51377
     49       0.00000           0.456205           12.41398
     50       0.00000           0.631665           17.18849
     51       0.00000           0.632090           17.20004
     52       0.00000           0.633797           17.24648
     53       0.00000           0.633856           17.24811
     54       0.00000           0.719269           19.57230
     55       0.00000           0.722632           19.66383
     56       0.00000           0.722708           19.66587
     57       0.00000           0.724106           19.70393
     58       0.00000           0.724260           19.70810
     59       0.00000           0.817165           22.23620
     60       0.00000           0.817191           22.23690
     61       0.00000           0.875500           23.82355
     62       0.00000           0.875530           23.82439
     63       0.00000           0.972110           26.45247
     64       0.00000           1.065888           29.00429
     65       0.00000           1.098442           29.89012
     66       0.00000           1.098570           29.89362
     67       0.00000           1.121643           30.52146
     68       0.00000           1.140015           31.02139
     69       0.00000           1.180123           32.11277
     70       0.00000           1.198308           32.60763
     71       0.00000           1.198312           32.60772
     72       0.00000           1.273071           34.64201
     73       0.00000           1.273126           34.64351
     74       0.00000           1.370897           37.30399
     75       0.00000           1.370926           37.30479
     76       0.00000           1.397143           38.01818
     77       0.00000           1.397169           38.01891
     78       0.00000           1.436970           39.10194
     79       0.00000           1.444012           39.29356
     80       0.00000           1.590842           43.28901
     81       0.00000           1.603463           43.63244
     82       0.00000           1.603499           43.63343
     83       0.00000           1.644499           44.74910
     84       0.00000           1.644513           44.74947
     85       0.00000           1.684613           45.84064
     86       0.00000           1.684632           45.84118
     87       0.00000           1.719598           46.79264
     88       0.00000           1.719631           46.79354
     89       0.00000           1.742556           47.41736
     90       0.00000           1.815362           49.39852
     91       0.00000           1.831928           49.84930
     92       0.00000           1.831951           49.84991
     93       0.00000           1.978514           53.83811
     94       0.00000           1.978527           53.83847
     95       0.00000           2.240675           60.97186
     96       0.00000           2.240681           60.97204
     97       0.00000           2.244404           61.07335
     98       0.00000           2.259686           61.48918
     99       0.00000           2.284163           62.15525
    100       0.00000           2.377601           64.69782
    101       0.00000           2.377621           64.69835
    102       0.00000           2.513720           68.40180
    103       0.00000           2.619021           71.26718
    104       0.00000           2.619048           71.26792
    105       0.00000           2.879569           78.35705
    106       0.00000           3.054438           83.11549
    107       0.00000           3.054480           83.11664
    108       0.00000           3.350167           91.16269
    109       0.00000           3.350250           91.16495
    110       0.00000           3.649838           99.31715
    111       0.00000           3.705379          100.82850
    112       0.00000           3.740891          101.79481
    113       0.00000           3.740904          101.79518
    114       0.00000           5.995692          163.15108

  Highest occupied state (VBM) at    -11.11006136 eV
  | Occupation number:      2.00000000

  Lowest unoccupied state (CBM) at    -5.85043055 eV
  | Occupation number:      0.00000000

  Overall HOMO-LUMO gap:      5.25963081 eV.
  Calculating total energy contributions from superposition of free atom densities.

  Total energy components:
  | Sum of eigenvalues            :        -140.07759651 Ha       -3811.70533854 eV
  | XC energy correction          :         -31.73429354 Ha        -863.53406333 eV
  | XC potential correction       :          41.76213372 Ha        1136.40547833 eV
  | Free-atom electrostatic energy:        -100.58400911 Ha       -2737.03014647 eV
  | Hartree energy correction     :           0.00000000 Ha           0.00000000 eV
  | vdW energy correction         :           0.00000000 Ha           0.00000000 eV
  | Entropy correction            :           0.00000000 Ha           0.00000000 eV
  | ---------------------------
  | Total energy                  :        -230.63376544 Ha       -6275.86407001 eV
  | Total energy, T -> 0          :        -230.63376544 Ha       -6275.86407001 eV  <-- do not rely on this value for anything but (periodic) metals
  | Electronic free energy        :        -230.63376544 Ha       -6275.86407001 eV

  Derived energy quantities:
  | Kinetic energy                :         226.90989416 Ha        6174.53237681 eV
  | Electrostatic energy          :        -425.80936606 Ha      -11586.86238349 eV
  | Energy correction for multipole
  | error in Hartree potential    :           0.00000000 Ha           0.00000000 eV
  | Sum of eigenvalues per atom                           :        -317.64211155 eV
  | Total energy (T->0) per atom                          :        -522.98867250 eV  <-- do not rely on this value for anything but (periodic) metals
  | Electronic free energy per atom                       :        -522.98867250 eV
  Initialize hartree_potential_storage
  Max. number of atoms included in rho_multipole:           12

  End scf initialization - timings             :  max(cpu_time)    wall_clock(cpu1)
  | Time for scf. initialization               :        0.070 s           0.072 s
  | Boundary condition initialization          :        0.000 s           0.000 s
  | Integration                                :        0.015 s           0.016 s
  | Solution of K.-S. eqns.                    :        0.016 s           0.017 s
  | Grid partitioning                          :        0.023 s           0.023 s
  | Preloading free-atom quantities on grid    :        0.010 s           0.009 s
  | Free-atom superposition energy             :        0.002 s           0.002 s
  | Total energy evaluation                    :        0.000 s           0.001 s

  Partial memory accounting:
  | Current value for overall tracked memory usage:
  |   Minimum:        0.154 MB (on task 39)
  |   Maximum:        0.159 MB (on task  0)
  |   Average:        0.158 MB
  | Peak value for overall tracked memory usage:
  |   Minimum:        0.769 MB (on task  9 after allocating wave)
  |   Maximum:        0.783 MB (on task  0 after allocating wave)
  |   Average:        0.781 MB
  | Largest tracked array allocation so far:
  |   Minimum:        0.156 MB (H_times_psi on task  9)
  |   Maximum:        0.265 MB (all_coords on task 18)
  |   Average:        0.168 MB
  Note:  These values currently only include a subset of arrays which are explicitly tracked.
  The "true" memory usage will be greater.
------------------------------------------------------------
  Evaluating new KS density.
  Integration grid: deviation in total charge (<rho> - N_e) =   3.552714E-14

  Time for density update prior                :  max(cpu_time)    wall_clock(cpu1)
  | self-consistency iterative process         :        0.005 s           0.005 s

------------------------------------------------------------
          Begin self-consistency iteration #    1

  Date     :  20210705, Time     :  093959.437
------------------------------------------------------------
  Pulay mixing of updated and previous charge densities.

  Evaluating partitioned Hartree potential by multipole expansion.
  | Analytical far-field extrapolation by fixed multipoles:
  | Hartree multipole sum: apparent total charge =  -0.681667E-04
  Summing up the Hartree potential.
  Time summed over all CPUs for potential: real work        0.426 s, elapsed        0.446 s
  | RMS charge density error from multipole expansion :   0.186074E-02

  Integrating Hamiltonian matrix: batch-based integration.
  Time summed over all CPUs for integration: real work        0.266 s, elapsed        0.291 s

  Updating Kohn-Sham eigenvalues and eigenvectors using ELSI and the ELPA eigensolver.
  Starting ELPA eigensolver
  Finished transformation to standard eigenproblem
  | Time :     0.001 s
  Finished solving standard eigenproblem
  | Time :     0.003 s
  Finished back-transformation of eigenvectors
  | Time :     0.000 s

  Obtaining occupation numbers and chemical potential using ELSI.
  | Chemical potential (Fermi level):    -7.14707848 eV
  Writing Kohn-Sham eigenvalues.

  State    Occupation    Eigenvalue [Ha]    Eigenvalue [eV]
      1       2.00000         -10.045358         -273.34809
      2       2.00000         -10.045129         -273.34187
      3       2.00000         -10.045129         -273.34186
      4       2.00000         -10.044672         -273.32943
      5       2.00000         -10.044672         -273.32942
      6       2.00000         -10.044443         -273.32321
      7       2.00000          -0.972349          -26.45897
      8       2.00000          -0.864018          -23.51114
      9       2.00000          -0.864013          -23.51100
     10       2.00000          -0.727864          -19.80620
     11       2.00000          -0.727862          -19.80614
     12       2.00000          -0.643903          -17.52149
     13       2.00000          -0.611887          -16.65029
     14       2.00000          -0.563778          -15.34117
     15       2.00000          -0.551233          -14.99981
     16       2.00000          -0.551226          -14.99962
     17       2.00000          -0.491093          -13.36331
     18       2.00000          -0.481806          -13.11060
     19       2.00000          -0.481797          -13.11037
     20       2.00000          -0.391029          -10.64044
     21       2.00000          -0.391026          -10.64036
     22       0.00000          -0.198039           -5.38891
     23       0.00000          -0.198034           -5.38879
     24       0.00000          -0.054691           -1.48822
     25       0.00000          -0.052772           -1.43599
     26       0.00000          -0.005327           -0.14495
     27       0.00000          -0.005321           -0.14480
     28       0.00000           0.029556            0.80426
     29       0.00000           0.029560            0.80437
     30       0.00000           0.067374            1.83334
     31       0.00000           0.119765            3.25896
     32       0.00000           0.119782            3.25942
     33       0.00000           0.121763            3.31334
     34       0.00000           0.121796            3.31425
     35       0.00000           0.175234            4.76836
     36       0.00000           0.200888            5.46644
     37       0.00000           0.208062            5.66166
     38       0.00000           0.252896            6.88165
     39       0.00000           0.252904            6.88187
     40       0.00000           0.274924            7.48107
     41       0.00000           0.274928            7.48118
     42       0.00000           0.280507            7.63298
     43       0.00000           0.295288            8.03519
     44       0.00000           0.295383            8.03779
     45       0.00000           0.353088            9.60801
     46       0.00000           0.361310            9.83174
     47       0.00000           0.434255           11.81669
     48       0.00000           0.434347           11.81918
     49       0.00000           0.470051           12.79073
     50       0.00000           0.643358           17.50667
     51       0.00000           0.643385           17.50741
     52       0.00000           0.643887           17.52105
     53       0.00000           0.648602           17.64936
     54       0.00000           0.730234           19.87068
     55       0.00000           0.733168           19.95053
     56       0.00000           0.733197           19.95131
     57       0.00000           0.737162           20.05919
     58       0.00000           0.737243           20.06140
     59       0.00000           0.831797           22.63434
     60       0.00000           0.831823           22.63506
     61       0.00000           0.891011           24.24564
     62       0.00000           0.891041           24.24647
     63       0.00000           0.986492           26.84382
     64       0.00000           1.078776           29.35498
     65       0.00000           1.110204           30.21018
     66       0.00000           1.110331           30.21366
     67       0.00000           1.131820           30.79839
     68       0.00000           1.153290           31.38263
     69       0.00000           1.195696           32.53655
     70       0.00000           1.208934           32.89678
     71       0.00000           1.208938           32.89687
     72       0.00000           1.285866           34.99020
     73       0.00000           1.285921           34.99168
     74       0.00000           1.385991           37.71475
     75       0.00000           1.386020           37.71554
     76       0.00000           1.412944           38.44816
     77       0.00000           1.412971           38.44890
     78       0.00000           1.446805           39.36957
     79       0.00000           1.453875           39.56196
     80       0.00000           1.605846           43.69731
     81       0.00000           1.614796           43.94083
     82       0.00000           1.614832           43.94182
     83       0.00000           1.660568           45.18636
     84       0.00000           1.660582           45.18674
     85       0.00000           1.701669           46.30476
     86       0.00000           1.701689           46.30532
     87       0.00000           1.737525           47.28046
     88       0.00000           1.737563           47.28151
     89       0.00000           1.753655           47.71939
     90       0.00000           1.830136           49.80053
     91       0.00000           1.846956           50.25824
     92       0.00000           1.846979           50.25885
     93       0.00000           1.993009           54.23254
     94       0.00000           1.993023           54.23291
     95       0.00000           2.254490           61.34780
     96       0.00000           2.254496           61.34796
     97       0.00000           2.256285           61.39665
     98       0.00000           2.275640           61.92330
     99       0.00000           2.302849           62.66370
    100       0.00000           2.394933           65.16945
    101       0.00000           2.394953           65.17000
    102       0.00000           2.527707           68.78239
    103       0.00000           2.632068           71.62221
    104       0.00000           2.632096           71.62296
    105       0.00000           2.897365           78.84132
    106       0.00000           3.071363           83.57604
    107       0.00000           3.071405           83.57718
    108       0.00000           3.364519           91.55321
    109       0.00000           3.364602           91.55549
    110       0.00000           3.670093           99.86832
    111       0.00000           3.721523          101.26779
    112       0.00000           3.756017          102.20642
    113       0.00000           3.756031          102.20679
    114       0.00000           6.008316          163.49459

  Highest occupied state (VBM) at    -10.64036141 eV
  | Occupation number:      2.00000000

  Lowest unoccupied state (CBM) at    -5.38890824 eV
  | Occupation number:      0.00000000

  Overall HOMO-LUMO gap:      5.25145317 eV.

  Total energy components:
  | Sum of eigenvalues            :        -139.16857359 Ha       -3786.96956635 eV
  | XC energy correction          :         -31.80075645 Ha        -865.34261125 eV
  | XC potential correction       :          41.84967220 Ha        1138.78752135 eV
  | Free-atom electrostatic energy:        -100.58400911 Ha       -2737.03014647 eV
  | Hartree energy correction     :          -0.87509075 Ha         -23.81243080 eV
  | vdW energy correction         :           0.00000000 Ha           0.00000000 eV
  | Entropy correction            :           0.00000000 Ha           0.00000000 eV
  | ---------------------------
  | Total energy                  :        -230.57875771 Ha       -6274.36723352 eV
  | Total energy, T -> 0          :        -230.57875771 Ha       -6274.36723352 eV  <-- do not rely on this value for anything but (periodic) metals
  | Electronic free energy        :        -230.57875771 Ha       -6274.36723352 eV

  Derived energy quantities:
  | Kinetic energy                :         227.27615971 Ha        6184.49896952 eV
  | Electrostatic energy          :        -426.05416096 Ha      -11593.52359180 eV
  | Energy correction for multipole
  | error in Hartree potential    :           0.00510868 Ha           0.13901418 eV
  | Sum of eigenvalues per atom                           :        -315.58079720 eV
  | Total energy (T->0) per atom                          :        -522.86393613 eV  <-- do not rely on this value for anything but (periodic) metals
  | Electronic free energy per atom                       :        -522.86393613 eV
  Evaluating new KS density.
  Integration grid: deviation in total charge (<rho> - N_e) =   7.105427E-15

  Self-consistency convergence accuracy:
  | Change of charge density      :  0.5207E+00
  | Change of sum of eigenvalues  :  0.2474E+02 eV
  | Change of total energy        :  0.1497E+01 eV


------------------------------------------------------------
  End self-consistency iteration #     1       :  max(cpu_time)    wall_clock(cpu1)
  | Time for this iteration                    :        0.033 s           0.033 s
  | Charge density update                      :        0.004 s           0.004 s
  | Density mixing                             :        0.000 s           0.000 s
  | Hartree multipole update                   :        0.002 s           0.003 s
  | Hartree multipole summation                :        0.012 s           0.012 s
  | Integration                                :        0.008 s           0.008 s
  | Solution of K.-S. eqns.                    :        0.005 s           0.005 s
  | Total energy evaluation                    :        0.001 s           0.001 s

  Partial memory accounting:
  | Current value for overall tracked memory usage:
  |   Minimum:        0.154 MB (on task 39)
  |   Maximum:        0.159 MB (on task  0)
  |   Average:        0.158 MB
  | Peak value for overall tracked memory usage:
  |   Minimum:        0.769 MB (on task  9 after allocating wave)
  |   Maximum:        0.783 MB (on task  0 after allocating wave)
  |   Average:        0.781 MB
  | Largest tracked array allocation so far:
  |   Minimum:        0.156 MB (H_times_psi on task  9)
  |   Maximum:        0.265 MB (all_coords on task 18)
  |   Average:        0.168 MB
  Note:  These values currently only include a subset of arrays which are explicitly tracked.
  The "true" memory usage will be greater.
------------------------------------------------------------

------------------------------------------------------------
          Begin self-consistency iteration #    2

  Date     :  20210705, Time     :  093959.471
------------------------------------------------------------
  Pulay mixing of updated and previous charge densities.

  Evaluating partitioned Hartree potential by multipole expansion.
  | Analytical far-field extrapolation by fixed multipoles:
  | Hartree multipole sum: apparent total charge =  -0.440032E-03
  Summing up the Hartree potential.
  Time summed over all CPUs for potential: real work        0.420 s, elapsed        0.442 s
  | RMS charge density error from multipole expansion :   0.208567E-01

  Integrating Hamiltonian matrix: batch-based integration.
  Time summed over all CPUs for integration: real work        0.265 s, elapsed        0.290 s

  Updating Kohn-Sham eigenvalues and eigenvectors using ELSI and the ELPA eigensolver.
  Starting ELPA eigensolver
  Finished transformation to standard eigenproblem
  | Time :     0.001 s
  Finished solving standard eigenproblem
  | Time :     0.002 s
  Finished back-transformation of eigenvectors
  | Time :     0.001 s

  Obtaining occupation numbers and chemical potential using ELSI.
  | Chemical potential (Fermi level):    -1.92158096 eV
  Highest occupied state (VBM) at     -6.20843328 eV
  | Occupation number:      2.00000000

  Lowest unoccupied state (CBM) at    -1.06933513 eV
  | Occupation number:      0.00000000

  Overall HOMO-LUMO gap:      5.13909815 eV.

  Checking to see if s.c.f. parameters should be adjusted.
  The system likely has a gap. Increased the default Pulay mixing parameter (charge_mix_param). Value:   0.200000 .
  Kept the default occupation width. Value:   0.010000 eV.

  Total energy components:
  | Sum of eigenvalues            :        -130.37270806 Ha       -3547.62188730 eV
  | XC energy correction          :         -32.50372663 Ha        -884.47140288 eV
  | XC potential correction       :          42.77548454 Ha        1163.98015704 eV
  | Free-atom electrostatic energy:        -100.58400911 Ha       -2737.03014647 eV
  | Hartree energy correction     :          -9.66114479 Ha        -262.89312558 eV
  | vdW energy correction         :           0.00000000 Ha           0.00000000 eV
  | Entropy correction            :           0.00000000 Ha           0.00000000 eV
  | ---------------------------
  | Total energy                  :        -230.34610404 Ha       -6268.03640519 eV
  | Total energy, T -> 0          :        -230.34610404 Ha       -6268.03640519 eV  <-- do not rely on this value for anything but (periodic) metals
  | Electronic free energy        :        -230.34610404 Ha       -6268.03640519 eV

  Derived energy quantities:
  | Kinetic energy                :         230.34840837 Ha        6268.09910922 eV
  | Electrostatic energy          :        -428.19078579 Ha      -11651.66411153 eV
  | Energy correction for multipole
  | error in Hartree potential    :           0.05517994 Ha           1.50152265 eV
  | Sum of eigenvalues per atom                           :        -295.63515727 eV
  | Total energy (T->0) per atom                          :        -522.33636710 eV  <-- do not rely on this value for anything but (periodic) metals
  | Electronic free energy per atom                       :        -522.33636710 eV
  Evaluating new KS density.
  Integration grid: deviation in total charge (<rho> - N_e) =   1.421085E-14

  Self-consistency convergence accuracy:
  | Change of charge density      :  0.4819E+00
  | Change of sum of eigenvalues  :  0.2393E+03 eV
  | Change of total energy        :  0.6331E+01 eV


------------------------------------------------------------
  End self-consistency iteration #     2       :  max(cpu_time)    wall_clock(cpu1)
  | Time for this iteration                    :        0.030 s           0.030 s
  | Charge density update                      :        0.004 s           0.004 s
  | Density mixing                             :        0.000 s           0.000 s
  | Hartree multipole update                   :        0.001 s           0.002 s
  | Hartree multipole summation                :        0.011 s           0.011 s
  | Integration                                :        0.008 s           0.008 s
  | Solution of K.-S. eqns.                    :        0.004 s           0.004 s
[...]
  End CPSCF iteration #     4                  :  max(cpu_time)    wall_clock(cpu1)
  | Time for this iteration                    :        0.094 s           0.094 s
  | first_order_density                        :        0.012 s           0.011 s
  | first_order_potential                      :        0.061 s           0.061 s
  | first_order_H                              :        0.017 s           0.017 s
  | first_order_DM                             :        0.002 s           0.002 s
  | Solution of Sternheimer eqns.              :        0.001 s           0.001 s
------------------------------------------------------------

-------------------------------------------------------------
          Begin CP-self-consistency iteration #    5

  Date     :  20210705, Time     :  094000.170
------------------------------------------------------------

  CPSCF convergence accuracy:
  | Change of first_order_density_matrix     :  0.5401E-01
  Integrating first_order_rho: batch-based integration.
  Time summed over all CPUs for integration: real work        0.276 s, elapsed        0.481 s => Consider using load balancing!

  Evaluating partitioned Hartree potential by multipole expansion.
  | Analytical far-field extrapolation by fixed multipoles:
  | Hartree multipole sum: apparent total charge =  -0.614942E-08
  Summing up the Hartree potential.
  Time summed over all CPUs for potential: real work        0.427 s, elapsed        0.742 s
  | RMS delta_rho error from multipole expansion :   0.104056E+00


  Evaluating partitioned Hartree potential by multipole expansion.
  | Analytical far-field extrapolation by fixed multipoles:
  | Hartree multipole sum: apparent total charge =  -0.157750E-08
  Summing up the Hartree potential.
  Time summed over all CPUs for potential: real work        0.419 s, elapsed        0.731 s
  | RMS delta_rho error from multipole expansion :   0.104030E+00


  Evaluating partitioned Hartree potential by multipole expansion.
  | Analytical far-field extrapolation by fixed multipoles:
  | Hartree multipole sum: apparent total charge =  -0.146753E-07
  Summing up the Hartree potential.
  Time summed over all CPUs for potential: real work        0.418 s, elapsed        0.728 s
  | RMS delta_rho error from multipole expansion :   0.719687E-01

  Integrating first-order-Hamiltonian matrix: batch-based integration.
  Time summed over all CPUs for integration: real work        0.360 s, elapsed        0.651 s => Consider using load balancing!
  End CPSCF iteration #     5                  :  max(cpu_time)    wall_clock(cpu1)
  | Time for this iteration                    :        0.094 s           0.094 s
  | first_order_density                        :        0.012 s           0.012 s
  | first_order_potential                      :        0.060 s           0.061 s
  | first_order_H                              :        0.017 s           0.017 s
  | first_order_DM                             :        0.002 s           0.002 s
  | Solution of Sternheimer eqns.              :        0.001 s           0.001 s
------------------------------------------------------------

-------------------------------------------------------------
          Begin CP-self-consistency iteration #    6

  Date     :  20210705, Time     :  094000.264
------------------------------------------------------------

  CPSCF convergence accuracy:
  | Change of first_order_density_matrix     :  0.1779E-01
  Integrating first_order_rho: batch-based integration.
  Time summed over all CPUs for integration: real work        0.276 s, elapsed        0.477 s => Consider using load balancing!

  Evaluating partitioned Hartree potential by multipole expansion.
  | Analytical far-field extrapolation by fixed multipoles:
  | Hartree multipole sum: apparent total charge =  -0.664084E-08
  Summing up the Hartree potential.
  Time summed over all CPUs for potential: real work        0.427 s, elapsed        0.743 s
  | RMS delta_rho error from multipole expansion :   0.103734E+00


  Evaluating partitioned Hartree potential by multipole expansion.
  | Analytical far-field extrapolation by fixed multipoles:
  | Hartree multipole sum: apparent total charge =  -0.143231E-08
  Summing up the Hartree potential.
  Time summed over all CPUs for potential: real work        0.419 s, elapsed        0.731 s
  | RMS delta_rho error from multipole expansion :   0.103707E+00


  Evaluating partitioned Hartree potential by multipole expansion.
  | Analytical far-field extrapolation by fixed multipoles:
  | Hartree multipole sum: apparent total charge =  -0.397803E-07
  Summing up the Hartree potential.
  Time summed over all CPUs for potential: real work        0.419 s, elapsed        0.734 s
  | RMS delta_rho error from multipole expansion :   0.717357E-01

  Integrating first-order-Hamiltonian matrix: batch-based integration.
  Time summed over all CPUs for integration: real work        0.360 s, elapsed        0.645 s => Consider using load balancing!
  End CPSCF iteration #     6                  :  max(cpu_time)    wall_clock(cpu1)
  | Time for this iteration                    :        0.093 s           0.093 s
  | first_order_density                        :        0.012 s           0.012 s
  | first_order_potential                      :        0.061 s           0.061 s
  | first_order_H                              :        0.017 s           0.016 s
  | first_order_DM                             :        0.002 s           0.002 s
  | Solution of Sternheimer eqns.              :        0.001 s           0.001 s
------------------------------------------------------------

-------------------------------------------------------------
          Begin CP-self-consistency iteration #    7

  Date     :  20210705, Time     :  094000.357
------------------------------------------------------------

  CPSCF convergence accuracy:
  | Change of first_order_density_matrix     :  0.2546E-02
  Integrating first_order_rho: batch-based integration.
  Time summed over all CPUs for integration: real work        0.276 s, elapsed        0.480 s => Consider using load balancing!

  Evaluating partitioned Hartree potential by multipole expansion.
  | Analytical far-field extrapolation by fixed multipoles:
  | Hartree multipole sum: apparent total charge =  -0.654221E-08
  Summing up the Hartree potential.
  Time summed over all CPUs for potential: real work        0.427 s, elapsed        0.742 s
  | RMS delta_rho error from multipole expansion :   0.103705E+00


  Evaluating partitioned Hartree potential by multipole expansion.
  | Analytical far-field extrapolation by fixed multipoles:
  | Hartree multipole sum: apparent total charge =  -0.151194E-08
  Summing up the Hartree potential.
  Time summed over all CPUs for potential: real work        0.419 s, elapsed        0.736 s
  | RMS delta_rho error from multipole expansion :   0.103680E+00


  Evaluating partitioned Hartree potential by multipole expansion.
  | Analytical far-field extrapolation by fixed multipoles:
  | Hartree multipole sum: apparent total charge =  -0.224230E-07
  Summing up the Hartree potential.
  Time summed over all CPUs for potential: real work        0.418 s, elapsed        0.732 s
  | RMS delta_rho error from multipole expansion :   0.717192E-01

  Integrating first-order-Hamiltonian matrix: batch-based integration.
  Time summed over all CPUs for integration: real work        0.360 s, elapsed        0.652 s => Consider using load balancing!
  End CPSCF iteration #     7                  :  max(cpu_time)    wall_clock(cpu1)
  | Time for this iteration                    :        0.093 s           0.094 s
  | first_order_density                        :        0.012 s           0.012 s
  | first_order_potential                      :        0.060 s           0.061 s
  | first_order_H                              :        0.017 s           0.017 s
  | first_order_DM                             :        0.002 s           0.002 s
  | Solution of Sternheimer eqns.              :        0.001 s           0.001 s
------------------------------------------------------------

-------------------------------------------------------------
          Begin CP-self-consistency iteration #    8

  Date     :  20210705, Time     :  094000.451
------------------------------------------------------------

  CPSCF convergence accuracy:
  | Change of first_order_density_matrix     :  0.1240E-02
  Integrating first_order_rho: batch-based integration.
  Time summed over all CPUs for integration: real work        0.275 s, elapsed        0.482 s => Consider using load balancing!

  Evaluating partitioned Hartree potential by multipole expansion.
  | Analytical far-field extrapolation by fixed multipoles:
  | Hartree multipole sum: apparent total charge =  -0.641699E-08
  Summing up the Hartree potential.
  Time summed over all CPUs for potential: real work        0.427 s, elapsed        0.743 s
  | RMS delta_rho error from multipole expansion :   0.103695E+00


  Evaluating partitioned Hartree potential by multipole expansion.
  | Analytical far-field extrapolation by fixed multipoles:
  | Hartree multipole sum: apparent total charge =  -0.150735E-08
  Summing up the Hartree potential.
  Time summed over all CPUs for potential: real work        0.419 s, elapsed        0.733 s
  | RMS delta_rho error from multipole expansion :   0.103668E+00


  Evaluating partitioned Hartree potential by multipole expansion.
  | Analytical far-field extrapolation by fixed multipoles:
  | Hartree multipole sum: apparent total charge =  -0.228363E-07
  Summing up the Hartree potential.
  Time summed over all CPUs for potential: real work        0.418 s, elapsed        0.726 s
  | RMS delta_rho error from multipole expansion :   0.717151E-01

  Integrating first-order-Hamiltonian matrix: batch-based integration.
  Time summed over all CPUs for integration: real work        0.362 s, elapsed        0.552 s => Consider using load balancing!
  End CPSCF iteration #     8                  :  max(cpu_time)    wall_clock(cpu1)
  | Time for this iteration                    :        0.091 s           0.091 s
  | first_order_density                        :        0.012 s           0.012 s
  | first_order_potential                      :        0.060 s           0.060 s
  | first_order_H                              :        0.014 s           0.015 s
  | first_order_DM                             :        0.002 s           0.002 s
  | Solution of Sternheimer eqns.              :        0.001 s           0.001 s
------------------------------------------------------------

-------------------------------------------------------------
          Begin CP-self-consistency iteration #    9

  Date     :  20210705, Time     :  094000.542
------------------------------------------------------------

  CP-self-consistency cycle converged in    8 iterations

  End CPSCF iteration #     9                  :  max(cpu_time)    wall_clock(cpu1)
  | Time for this iteration                    :        0.002 s           0.002 s
  | first_order_density                        :        0.012 s           0.012 s
  | first_order_potential                      :        0.060 s           0.060 s
  | first_order_H                              :        0.014 s           0.015 s
  | first_order_DM                             :        0.002 s           0.002 s
  | Solution of Sternheimer eqns.              :        0.001 s           0.001 s
------------------------------------------------------------
  Summing up the Hartree potential.
  Time summed over all CPUs for integrate_polarizability: real work        0.002 s, elapsed        0.005 s

DFPT for polarizability:--->
   75.7288460528550      -5.364300172538972E-005 -1.623858604625084E-002
 -5.363860888341065E-005   75.7260056491125       9.376101273376680E-003
 -1.624628245983584E-002  9.380356409996793E-003   30.8298558484758
The mean polarizability is   60.761569
DFPT polarizability (Bohr^3)        xx        yy        zz        xy        xz        yz
  | Polarizability:--->                        75.728846053             75.726005649             30.829855848             -0.000053643             -0.016238586              0.009376101

                                               :  max(cpu_time)    wall_clock(cpu1)
  | Time for polarizability calculation        :        0.000 s           0.000 s
===========================================================================

------------------------------------------------------------------------------
  Final output of selected total energy values:

  The following output summarizes some interesting total energy values
  at the end of a run (AFTER all relaxation, molecular dynamics, etc.).

  | Total energy of the DFT / Hartree-Fock s.c.f. calculation      :          -6267.482813133 eV
  | Final zero-broadening corrected energy (caution - metals only) :          -6267.482813133 eV
  | For reference only, the value of 1 Hartree used in FHI-aims is :             27.211384500 eV

  Before relying on these values, please be sure to understand exactly which
  total energy value is referred to by a given number. Different objects may
  all carry the same name 'total energy'. Definitions:

  Total energy of the DFT / Hartree-Fock s.c.f. calculation:
  | Note that this energy does not include ANY quantities calculated after the
  | s.c.f. cycle, in particular not ANY RPA, MP2, etc. many-body perturbation terms.

  Final zero-broadening corrected energy:
  | For metallic systems only, a broadening of the occupation numbers at the Fermi
  | level can be extrapolated back to zero broadening by an electron-gas inspired
  | formula. For all systems that are not real metals, this value can be
  | meaningless and should be avoided.

------------------------------------------------------------------------------
  Methods described in the following list of references were used in this FHI-aims run.
  If you publish the results, please make sure to cite these reference if they apply.
  FHI-aims is an academic code, and for our developers (often, Ph.D. students
  and postdocs), scientific credit in the community is essential.
  Thank you for helping us!

  For any use of FHI-aims, please cite:

    Volker Blum, Ralf Gehrke, Felix Hanke, Paula Havu, Ville Havu,
    Xinguo Ren, Karsten Reuter, and Matthias Scheffler
    'Ab initio molecular simulations with numeric atom-centered orbitals'
    Computer Physics Communications 180, 2175-2196 (2009)
    http://dx.doi.org/10.1016/j.cpc.2009.06.022


  The DFPT (perturbation by an electric field) part of the code was used.
  Here is the corresponding reference:

    Honghui Shang, Nathaniel Raimbault, Mariana Rossi,
    Christian Carbogno, Patrick Rinke and Matthias Scheffler,
    'All-Electron, Real-Space Perturbation Theory for Homogeneous
    Electric Fields: Theory, Implementation, and Application within dft'
    New Journal of Physics, 20(7):073040, 2018


  The ELSI infrastructure was used in your run to solve the Kohn-Sham electronic structure.
  Please check out http://elsi-interchange.org to learn more.
  If scalability is important for your project, please acknowledge ELSI by citing:

    V. W-z. Yu, F. Corsetti, A. Garcia, W. P. Huhn, M. Jacquelin, W. Jia,
    B. Lange, L. Lin, J. Lu, W. Mi, A. Seifitokaldani, A. Vazquez-Mayagoitia,
    C. Yang, H. Yang, and V. Blum
    'ELSI: A unified software interface for Kohn-Sham electronic structure solvers'
    Computer Physics Communications 222, 267-285 (2018).
    http://dx.doi.org/10.1016/j.cpc.2017.09.007


  For the real-space grid partitioning and parallelization used in this calculation, please cite:

    Ville Havu, Volker Blum, Paula Havu, and Matthias Scheffler,
    'Efficient O(N) integration for all-electron electronic structure calculation'
    'using numerically tabulated basis functions'
    Journal of Computational Physics 228, 8367-8379 (2009).
    http://dx.doi.org/10.1016/j.jcp.2009.08.008

  Of course, there are many other important community references, e.g., those cited in the
  above references. Our list is limited to references that describe implementations in the
  FHI-aims code. The reason is purely practical (length of this list) - please credit others as well.

 * A warning was issued further up regarding the accuracy of onsite integrals.
   An integral with a negative eigenvalue was among the flagged integrals.
   In most standard situations, this warning is probably harmless.
   If needed, this can be verified by adjusting the radial_multiplier flag.

------------------------------------------------------------
          Leaving FHI-aims.
          Date     :  20210705, Time     :  094000.553

          Computational steps:
          | Number of self-consistency cycles          :           21
          | Number of SCF (re)initializations          :            1

          Detailed time accounting                     :  max(cpu_time)    wall_clock(cpu1)
          | Total time                                 :        1.585 s           1.594 s
          | Preparation time                           :        0.324 s           0.334 s
          | Boundary condition initalization           :        0.000 s           0.000 s
          | Grid partitioning                          :        0.023 s           0.023 s
          | Preloading free-atom quantities on grid    :        0.010 s           0.009 s
          | Free-atom superposition energy             :        0.002 s           0.002 s
          | Total time for integrations                :        0.106 s           0.104 s
          | Transforming ovlp_3fn to ovlp_3KS          :        0.000 s           0.000 s
          | Total time for solution of K.-S. equations :        0.063 s           0.065 s
          | Total time for density & force components  :        0.072 s           0.071 s
          | Total time for mixing                      :        0.004 s           0.007 s
          | Total time for Hartree multipole update    :        0.017 s           0.016 s
          | Total time for Hartree multipole sum       :        0.156 s           0.158 s
          | Total time for total energy evaluation     :        0.004 s           0.006 s
          | Total time NSC force correction            :        0.017 s           0.017 s
          | Total time for scaled ZORA corrections     :        0.000 s           0.000 s
          | Total time for vdW correction              :        0.004 s           0.005 s
          | Total time for DFPT pol or diel            :        0.684 s           0.685 s
          | Total time for first_order_density         :        0.086 s           0.084 s
          | Total time for first_order_potential       :        0.431 s           0.434 s
          | Total time for first_order_H               :        0.115 s           0.116 s
          | Total time for first_order_DM              :        0.020 s           0.020 s
          | Total time for solving Sternheimer eqns.   :        0.009 s           0.008 s

          Partial memory accounting:
          | Residual value for overall tracked memory usage across tasks:     0.000000 MB (should be 0.000000 MB)
          | Peak values for overall tracked memory usage:
          |   Minimum:        0.938 MB (on task  9 after allocating h_times_wave)
          |   Maximum:        0.951 MB (on task  0 after allocating h_times_wave)
          |   Average:        0.949 MB
          | Largest tracked array allocation:
          |   Minimum:        0.467 MB (gradient_basis_wave on task  9)
          |   Maximum:        0.475 MB (gradient_basis_wave on task  0)
          |   Average:        0.474 MB
          Note:  These values currently only include a subset of arrays which are explicitly tracked.
          The "true" memory usage will be greater.

          Have a nice day.
------------------------------------------------------------
