------------------------------------------------------------
          Invoking FHI-aims ...

          When using FHI-aims, please cite the following reference:

            Volker Blum, Ralf Gehrke, Felix Hanke, Paula Havu,
            Ville Havu, Xinguo Ren, Karsten Reuter, and Matthias Scheffler,
            'Ab Initio Molecular Simulations with Numeric Atom-Centered Orbitals',
            Computer Physics Communications 180, 2175-2196 (2009)

          In addition, many other developments in FHI-aims are likely important for
          your particular application. A partial list of references is given at the end of
          this file. Thank you for giving credit to the authors of these developments.

          For any questions about FHI-aims, please visit our slack channel at

            https://fhi-aims.slack.com

          and our main development and support site at

            https://aims-git.rz-berlin.mpg.de .

          The latter site, in particular, has a wiki to collect information, as well
          as an issue tracker to log discussions, suggest improvements, and report issues
          or bugs. https://aims-git.rz-berlin.mpg.de is also the main development site
          of the project and all new and updated code versions can be obtained there.
          Please send an email to aims-coordinators@fhi-berlin.mpg.de and we will add
          you to these sites. They are for you and everyone is welcome there.

------------------------------------------------------------



  Date     :  20210705, Time     :  094130.113
  Time zero on CPU 1             :   0.519350000000000E-01  s.
  Internal wall clock time zero  :           394710090.113  s.

  FHI-aims created a unique identifier for this run for later identification
  aims_uuid : E453CD7C-B7CD-406F-A14E-444F8D673CD1

  Build configuration of the current instance of FHI-aims
  -------------------------------------------------------
  FHI-aims version      : 210513
  Commit number         : 300bfe3f4
  CMake host system     : Linux-4.12.14-122.63-default
  CMake version         : 3.5.2
  Fortran compiler      : /mpcdf/soft/SLE_12/packages/x86_64/intel_parallel_studio/2020.1/compilers_and_libraries_2020.1.217/linux/mpi/intel64/bin/mpiifort (Intel) version 19.1.0.20200306
  Fortran compiler flags: -O3 -ip -fp-model precise
  C compiler            : /mpcdf/soft/SLE_12/packages/x86_64/intel/19.1.1/bin/icc (Intel) version 19.1.0.20200306
  C compiler flags      : -O3 -ip -fp-model precise -std=gnu99
  C++ compiler          : /mpcdf/soft/SLE_12/packages/x86_64/intel/19.1.1/bin/icpc (Intel) version 19.1.0.20200306
  C++ compiler flags    : -O3 -ip -fp-model precise -std=gnu99
  Using MPI
  Using ScaLAPACK
  Using LibXC
  Using i-PI
  Using RLSY
  Linking against: /mpcdf/soft/SLE_12/packages/x86_64/intel_parallel_studio/2020.1/mkl/lib/intel64/libmkl_intel_lp64.so
                   /mpcdf/soft/SLE_12/packages/x86_64/intel_parallel_studio/2020.1/mkl/lib/intel64/libmkl_sequential.so
                   /mpcdf/soft/SLE_12/packages/x86_64/intel_parallel_studio/2020.1/mkl/lib/intel64/libmkl_core.so
                   /mpcdf/soft/SLE_12/packages/x86_64/intel_parallel_studio/2020.1/mkl/lib/intel64/libmkl_blacs_intelmpi_lp64.so
                   /mpcdf/soft/SLE_12/packages/x86_64/intel_parallel_studio/2020.1/mkl/lib/intel64/libmkl_scalapack_lp64.so

  Using       40 parallel tasks.
  Task        0 on host co2212 reporting.
  Task        1 on host co2212 reporting.
  Task        2 on host co2212 reporting.
  Task        3 on host co2212 reporting.
  Task        4 on host co2212 reporting.
  Task        5 on host co2212 reporting.
  Task        6 on host co2212 reporting.
  Task        7 on host co2212 reporting.
  Task        8 on host co2212 reporting.
  Task        9 on host co2212 reporting.
  Task       10 on host co2212 reporting.
  Task       11 on host co2212 reporting.
  Task       12 on host co2212 reporting.
  Task       13 on host co2212 reporting.
  Task       14 on host co2212 reporting.
  Task       15 on host co2212 reporting.
  Task       16 on host co2212 reporting.
  Task       17 on host co2212 reporting.
  Task       18 on host co2212 reporting.
  Task       19 on host co2212 reporting.
  Task       20 on host co2212 reporting.
  Task       21 on host co2212 reporting.
  Task       22 on host co2212 reporting.
  Task       23 on host co2212 reporting.
  Task       24 on host co2212 reporting.
  Task       25 on host co2212 reporting.
  Task       26 on host co2212 reporting.
  Task       27 on host co2212 reporting.
  Task       28 on host co2212 reporting.
  Task       29 on host co2212 reporting.
  Task       30 on host co2212 reporting.
  Task       31 on host co2212 reporting.
  Task       32 on host co2212 reporting.
  Task       33 on host co2212 reporting.
  Task       34 on host co2212 reporting.
  Task       35 on host co2212 reporting.
  Task       36 on host co2212 reporting.
  Task       37 on host co2212 reporting.
  Task       38 on host co2212 reporting.
  Task       39 on host co2212 reporting.

  Performing system and environment tests:
  | Environment variable OMP_NUM_THREADS correctly set to 1.
  | Checking for ScaLAPACK...
  | Testing pdtran()...
  | All pdtran() tests passed.

  Obtaining array dimensions for all initial allocations:
  
  -----------------------------------------------------------------------
  Parsing control.in (first pass over file, find array dimensions only).
  The contents of control.in will be repeated verbatim below
  unless switched off by setting 'verbatim_writeout .false.' .
  in the first line of control.in .
  -----------------------------------------------------------------------
  
  #Physical settings
    xc            pw-lda
    spin          none
    relativistic  atomic_zora scalar
    vdw_correction_hirshfeld
  
  ################################################################################
  #
  #  FHI-aims code project
  #  VB, Fritz-Haber Institut, 2009
  #
  #  Suggested "light" defaults for C atom (to be pasted into control.in file)
  #  Be sure to double-check any results obtained with these settings for post-processing,
  #  e.g., with the "tight" defaults and larger basis sets.
  #
  ################################################################################
    species        C
  #     global species definitions
      nucleus             6
      mass                12.0107
  #
      l_hartree           4
  #
      cut_pot             3.5  1.5  1.0
      basis_dep_cutoff    1e-4
  #
      radial_base         34 5.0
      radial_multiplier   1
      angular_grids specified
        division   0.3326   50
        division   0.5710  110
        division   0.7727  194
        division   0.8772  302
  #      division   0.9334  434
  #      division   0.9625  590
  #      division   0.9924  770
  #      division   1.0230  974
  #      division   1.4589 1202
  #     outer_grid  974
       outer_grid 302
  ################################################################################
  #
  #  Definition of "minimal" basis
  #
  ################################################################################
  #     valence basis states
      valence      2  s   2.
      valence      2  p   2.
  #     ion occupancy
      ion_occ      2  s   1.
      ion_occ      2  p   1.
  ################################################################################
  #
  #  Suggested additional basis functions. For production calculations,
  #  uncomment them one after another (the most important basis functions are
  #  listed first).
  #
  #  Constructed for dimers: 1.0 A, 1.25 A, 1.5 A, 2.0 A, 3.0 A
  #
  ################################################################################
  #  "First tier" - improvements: -1214.57 meV to -155.61 meV
       hydro 2 p 1.7
       hydro 3 d 6
       hydro 2 s 4.9
  #  "Second tier" - improvements: -67.75 meV to -5.23 meV
  #     hydro 4 f 9.8
  #     hydro 3 p 5.2
  #     hydro 3 s 4.3
  #     hydro 5 g 14.4
  #     hydro 3 d 6.2
  #  "Third tier" - improvements: -2.43 meV to -0.60 meV
  #     hydro 2 p 5.6
  #     hydro 2 s 1.4
  #     hydro 3 d 4.9
  #     hydro 4 f 11.2
  #  "Fourth tier" - improvements: -0.39 meV to -0.18 meV
  #     hydro 2 p 2.1
  #     hydro 5 g 16.4
  #     hydro 4 d 13.2
  #     hydro 3 s 13.6
  #     hydro 4 f 17.6
  #  Further basis functions - improvements: -0.08 meV and below
  #     hydro 3 s 2
  #     hydro 3 p 6
  #     hydro 4 d 20
  ################################################################################
  ################################################################################
  #
  #  FHI-aims code project
  #  VB, Fritz-Haber Institut, 2009
  #
  #  Suggested "light" defaults for H atom (to be pasted into control.in file)
  #  Be sure to double-check any results obtained with these settings for post-processing,
  #  e.g., with the "tight" defaults and larger basis sets.
  #
  ################################################################################
    species        H
  #     global species definitions
      nucleus             1
      mass                1.00794
  #
      l_hartree           4
  #
      cut_pot             3.5  1.5  1.0
      basis_dep_cutoff    1e-4
  #
      radial_base         24 5.0
      radial_multiplier   1
      angular_grids       specified
        division   0.2421   50
        division   0.3822  110
        division   0.4799  194
        division   0.5341  302
  #      division   0.5626  434
  #      division   0.5922  590
  #      division   0.6542  770
  #      division   0.6868 1202
  #      outer_grid  770
        outer_grid  302
  ################################################################################
  #
  #  Definition of "minimal" basis
  #
  ################################################################################
  #     valence basis states
      valence      1  s   1.
  #     ion occupancy
      ion_occ      1  s   0.5
  ################################################################################
  #
  #  Suggested additional basis functions. For production calculations,
  #  uncomment them one after another (the most important basis functions are
  #  listed first).
  #
  #  Basis constructed for dimers: 0.5 A, 0.7 A, 1.0 A, 1.5 A, 2.5 A
  #
  ################################################################################
  #  "First tier" - improvements: -1014.90 meV to -62.69 meV
       hydro 2 s 2.1
       hydro 2 p 3.5
  #  "Second tier" - improvements: -12.89 meV to -1.83 meV
  #     hydro 1 s 0.85
  #     hydro 2 p 3.7
  #     hydro 2 s 1.2
  #     hydro 3 d 7
  #  "Third tier" - improvements: -0.25 meV to -0.12 meV
  #     hydro 4 f 11.2
  #     hydro 3 p 4.8
  #     hydro 4 d 9
  #     hydro 3 s 3.2
  
  
  ################################################################################
  #
  #  FHI-aims code project
  #  VB, Fritz-Haber Institut, 2009
  #
  #  Suggested "light" defaults for Ag atom (to be pasted into control.in file)
  #  Be sure to double-check any results obtained with these settings for post-processing,
  #  e.g., with the "tight" defaults and larger basis sets.
  #
  ################################################################################
    species        Ag
  #     global species definitions
    # hirshfeld_param     122 15.4 2.57
  
      nucleus             47
      mass                107.8682
  #
      l_hartree           6
  #
      cut_pot             3.5  1.5  1.0
      basis_dep_cutoff    1e-4
  #
      radial_base         62 5.0
      radial_multiplier   1
      angular_grids specified
        division   0.5617   50
        division   0.9788  110
        division   1.2700  194
        division   1.5678  302
  #      division   2.1195  434
  #      division   2.1949  590
  #      division   2.2741  770
  #      division   2.8497 1202
  #      outer_grid  974
        outer_grid  302
  ################################################################################
  #
  #  Definition of "minimal" basis
  #
  ################################################################################
  #     valence basis states
      valence      5  s   1.
      valence      4  p   6.
      valence      4  d  10.
  #     ion occupancy
      ion_occ     5  s   0.
      ion_occ     4  p   6.
      ion_occ     4  d   9.
  ################################################################################
  #
  #  Suggested additional basis functions. For production calculations,
  #  uncomment them one after another (the most important basis functions are
  #  listed first).
  #
  #  Constructed for dimers: 2.1 A, 2.45 A, 3.00 A, 4.00 A
  #
  ################################################################################
  #  "First tier" - max. impr. -144.99  meV, min. impr. -3.42 meV
       ionic 5 p auto
       hydro 4 f 7.6
       hydro 3 s 2.6
  #     hydro 5 g 9.8
       hydro 4 d 8.4
  #  "Second tier" - max. impr. -3.10  meV, min. impr. -0.64 meV
  #     hydro 5 f 16.8
  #     hydro 6 h 13.2
  #     hydro 4 p 5
  #     hydro 4 d 4.3
  #     hydro 5 s 17.2
  #  "Third tier" - max. impr. -0.48  meV, min. impr. -0.12 meV
  #     hydro 4 f 19.2
  #     hydro 5 f 8.4
  #     hydro 6 p 12
  #     hydro 5 g 12.8
  #     hydro 5 d 8.4
  #     hydro 5 s 5.8
  #     hydro 6 h 15.2
  
  
  
  compute_forces .true.
  final_forces_cleaned .true.
  DFPT polarizability
  
  -----------------------------------------------------------------------
  Completed first pass over input file control.in .
  -----------------------------------------------------------------------
  
  
  -----------------------------------------------------------------------
  Parsing geometry.in (first pass over file, find array dimensions only).
  The contents of geometry.in will be repeated verbatim below
  unless switched off by setting 'verbatim_writeout .false.' .
  in the first line of geometry.in .
  -----------------------------------------------------------------------
  
  #
  # temporary structure-file for finite-difference calculation of forces
  # displacement  -0.0025 of \# atom     9 direction     1
  #
  atom   -0.00023400   -0.27359764   -4.54653000   C
  atom    1.20114016   -0.96717833   -4.54653000   C
  atom    1.20114016   -2.35438967   -4.54653000   C
  atom   -0.00023400   -3.04797036   -4.54653000   C
  atom   -1.20160816   -2.35438967   -4.54653000   C
  atom   -1.20160816   -0.96717833   -4.54653000   C
  atom   -0.00023400    0.82013270   -4.54653000   H
  atom    2.14833467   -0.42030956   -4.54653000   H
  atom    2.14833467   -2.90125844   -4.54653000   H
  atom   -0.00023400   -4.14420070   -4.54653000   H
  atom   -2.14880267   -2.90125844   -4.54653000   H
  atom   -2.14880267   -0.42030956   -4.54653000   H
  
  -----------------------------------------------------------------------
  Completed first pass over input file geometry.in .
  -----------------------------------------------------------------------
  

  Basic array size parameters:
  | Number of species                 :        3
  | Number of atoms                   :       12
  | Max. basis fn. angular momentum   :        3
  | Max. atomic/ionic basis occupied n:        5
  | Max. number of basis fn. types    :        3
  | Max. radial fns per species/type  :       10
  | Max. logarithmic grid size        :     1446
  | Max. radial integration grid size :       62
  | Max. angular integration grid size:      302
  | Max. angular grid division number :        8
  | Radial grid for Hartree potential :     1446
  | Number of spin channels           :        1

------------------------------------------------------------
          Reading file control.in.
------------------------------------------------------------
  XC: Using Perdew-Wang parametrisation of Ceperley-Alder LDA.
  Spin treatment: No spin polarisation.
  Scalar relativistic treatment of kinetic energy: on-site free-atom approximation to ZORA.
 
  Reading configuration options for species C                   .
  | Found nuclear charge :   6.0000
  | Found atomic mass :    12.0107000000000      amu
  | Found l_max for Hartree potential  :   4
  | Found cutoff potl. onset [A], width [A], scale factor :    3.50000    1.50000    1.00000
  | Threshold for basis-dependent cutoff potential is   0.100000E-03
  | Found data for basic radial integration grid :    34 points, outermost radius =    5.000 A
  | Found multiplier for basic radial grid :   1
  | Found angular grid specification: user-specified.
  | Specified grid contains     5 separate shells.
  | Check grid settings after all constraints further below.
  | Found free-atom valence shell :  2 s   2.000
  | Found free-atom valence shell :  2 p   2.000
  | Found free-ion valence shell :  2 s   1.000
  | Found free-ion valence shell :  2 p   1.000
  | Found hydrogenic basis function :  2 p   1.700
  | Found hydrogenic basis function :  3 d   6.000
  | Found hydrogenic basis function :  2 s   4.900
  Species C                   : Missing cutoff potential type.
  Defaulting to exp(1/x)/(1-x)^2 type cutoff potential.
  Species C : No 'logarithmic' tag. Using default grid for free atom:
  | Default logarithmic grid data [bohr] : 0.1000E-03 0.1000E+03 0.1012E+01
  Species C : On-site basis accuracy parameter (for Gram-Schmidt orthonormalisation) not specified.
  Using default value basis_acc =  0.1000000E-03.
  Species C                   : Using default innermost maximum threshold i_radial=  2 for radial functions.
  Species C                   : Default cutoff onset for free atom density etc. : 0.35000000E+01 AA.
  Species C                   : Basic radial grid will be enhanced according to radial_multiplier =   1, to contain    34 grid points.
 
  Reading configuration options for species H                   .
  | Found nuclear charge :   1.0000
  | Found atomic mass :    1.00794000000000      amu
  | Found l_max for Hartree potential  :   4
  | Found cutoff potl. onset [A], width [A], scale factor :    3.50000    1.50000    1.00000
  | Threshold for basis-dependent cutoff potential is   0.100000E-03
  | Found data for basic radial integration grid :    24 points, outermost radius =    5.000 A
  | Found multiplier for basic radial grid :   1
  | Found angular grid specification: user-specified.
  | Specified grid contains     5 separate shells.
  | Check grid settings after all constraints further below.
  | Found free-atom valence shell :  1 s   1.000
  | Found free-ion valence shell :  1 s   0.500
  | Found hydrogenic basis function :  2 s   2.100
  | Found hydrogenic basis function :  2 p   3.500
  Species H                   : Missing cutoff potential type.
  Defaulting to exp(1/x)/(1-x)^2 type cutoff potential.
  Species H : No 'logarithmic' tag. Using default grid for free atom:
  | Default logarithmic grid data [bohr] : 0.1000E-03 0.1000E+03 0.1012E+01
  Species H : On-site basis accuracy parameter (for Gram-Schmidt orthonormalisation) not specified.
  Using default value basis_acc =  0.1000000E-03.
  Species H                   : Using default innermost maximum threshold i_radial=  2 for radial functions.
  Species H                   : Default cutoff onset for free atom density etc. : 0.35000000E+01 AA.
  Species H                   : Basic radial grid will be enhanced according to radial_multiplier =   1, to contain    24 grid points.
 
  Reading configuration options for species Ag                  .
  | Found nuclear charge :  47.0000
  | Found atomic mass :    107.868200000000      amu
  | Found l_max for Hartree potential  :   6
  | Found cutoff potl. onset [A], width [A], scale factor :    3.50000    1.50000    1.00000
  | Threshold for basis-dependent cutoff potential is   0.100000E-03
  | Found data for basic radial integration grid :    62 points, outermost radius =    5.000 A
  | Found multiplier for basic radial grid :   1
  | Found angular grid specification: user-specified.
  | Specified grid contains     5 separate shells.
  | Check grid settings after all constraints further below.
  | Found free-atom valence shell :  5 s   1.000
  | Found free-atom valence shell :  4 p   6.000
  | Found free-atom valence shell :  4 d  10.000
  | Found free-ion valence shell :  5 s   0.000
  | Found free-ion valence shell :  4 p   6.000
  | Found free-ion valence shell :  4 d   9.000
  | Found ionic basis function :  5 p , default cutoff radius.
  | Found hydrogenic basis function :  4 f   7.600
  | Found hydrogenic basis function :  3 s   2.600
  | Found hydrogenic basis function :  4 d   8.400
  Species Ag                  : Missing cutoff potential type.
  Defaulting to exp(1/x)/(1-x)^2 type cutoff potential.
  Species Ag: No 'logarithmic' tag. Using default grid for free atom:
  | Default logarithmic grid data [bohr] : 0.1000E-03 0.1000E+03 0.1012E+01
  | Will include ionic basis functions of  2.0-fold positive Ag                   ion.
  Species Ag: On-site basis accuracy parameter (for Gram-Schmidt orthonormalisation) not specified.
  Using default value basis_acc =  0.1000000E-03.
  Species Ag                  : Using default innermost maximum threshold i_radial=  2 for radial functions.
  Species Ag                  : Default cutoff onset for free atom density etc. : 0.35000000E+01 AA.
  Species Ag                  : Basic radial grid will be enhanced according to radial_multiplier =   1, to contain    62 grid points.
  Forces will be computed.
  Cleaning forces before final output.
  DFPT calculation will begin after the DFT/HF calculation.
 
  Finished reading input file 'control.in'.
 
------------------------------------------------------------


------------------------------------------------------------
          Reading geometry description geometry.in.
------------------------------------------------------------
  | The smallest distance between any two atoms is         1.09372889 AA.
  | The first atom of this pair is atom number                      5 .
  | The second atom of this pair is atom number                    11 .
  Input structure read successfully.
  The structure contains       12 atoms,  and a total of         42.000 electrons.

  Input geometry:
  | No unit cell requested.
  | Atomic structure:
  |       Atom                x [A]            y [A]            z [A]
  |    1: Species C            -0.00023400       -0.27359764       -4.54653000
  |    2: Species C             1.20114016       -0.96717833       -4.54653000
  |    3: Species C             1.20114016       -2.35438967       -4.54653000
  |    4: Species C            -0.00023400       -3.04797036       -4.54653000
  |    5: Species C            -1.20160816       -2.35438967       -4.54653000
  |    6: Species C            -1.20160816       -0.96717833       -4.54653000
  |    7: Species H            -0.00023400        0.82013270       -4.54653000
  |    8: Species H             2.14833467       -0.42030956       -4.54653000
  |    9: Species H             2.14833467       -2.90125844       -4.54653000
  |   10: Species H            -0.00023400       -4.14420070       -4.54653000
  |   11: Species H            -2.14880267       -2.90125844       -4.54653000
  |   12: Species H            -2.14880267       -0.42030956       -4.54653000

 
  Finished reading input file 'control.in'.
 

------------------------------------------------------------
          Reading geometry description geometry.in.
------------------------------------------------------------
 
  Consistency checks for stacksize environment parameter are next.
 
  | Maximum stacksize for task 0: unlimited
  | Maximum stacksize for task 1: unlimited
  | Maximum stacksize for task 2: unlimited
  | Maximum stacksize for task 3: unlimited
  | Maximum stacksize for task 4: unlimited
  | Maximum stacksize for task 5: unlimited
  | Maximum stacksize for task 6: unlimited
  | Maximum stacksize for task 7: unlimited
  | Maximum stacksize for task 8: unlimited
  | Maximum stacksize for task 9: unlimited
  | Maximum stacksize for task 10: unlimited
  | Maximum stacksize for task 11: unlimited
  | Maximum stacksize for task 12: unlimited
  | Maximum stacksize for task 13: unlimited
  | Maximum stacksize for task 14: unlimited
  | Maximum stacksize for task 15: unlimited
  | Maximum stacksize for task 16: unlimited
  | Maximum stacksize for task 17: unlimited
  | Maximum stacksize for task 18: unlimited
  | Maximum stacksize for task 19: unlimited
  | Maximum stacksize for task 20: unlimited
  | Maximum stacksize for task 21: unlimited
  | Maximum stacksize for task 22: unlimited
  | Maximum stacksize for task 23: unlimited
  | Maximum stacksize for task 24: unlimited
  | Maximum stacksize for task 25: unlimited
  | Maximum stacksize for task 26: unlimited
  | Maximum stacksize for task 27: unlimited
  | Maximum stacksize for task 28: unlimited
  | Maximum stacksize for task 29: unlimited
  | Maximum stacksize for task 30: unlimited
  | Maximum stacksize for task 31: unlimited
  | Maximum stacksize for task 32: unlimited
  | Maximum stacksize for task 33: unlimited
  | Maximum stacksize for task 34: unlimited
  | Maximum stacksize for task 35: unlimited
  | Maximum stacksize for task 36: unlimited
  | Maximum stacksize for task 37: unlimited
  | Maximum stacksize for task 38: unlimited
  | Maximum stacksize for task 39: unlimited
  | Current stacksize for task 0: unlimited
  | Current stacksize for task 1: unlimited
  | Current stacksize for task 2: unlimited
  | Current stacksize for task 3: unlimited
  | Current stacksize for task 4: unlimited
  | Current stacksize for task 5: unlimited
  | Current stacksize for task 6: unlimited
  | Current stacksize for task 7: unlimited
  | Current stacksize for task 8: unlimited
  | Current stacksize for task 9: unlimited
  | Current stacksize for task 10: unlimited
  | Current stacksize for task 11: unlimited
  | Current stacksize for task 12: unlimited
  | Current stacksize for task 13: unlimited
  | Current stacksize for task 14: unlimited
  | Current stacksize for task 15: unlimited
  | Current stacksize for task 16: unlimited
  | Current stacksize for task 17: unlimited
  | Current stacksize for task 18: unlimited
  | Current stacksize for task 19: unlimited
  | Current stacksize for task 20: unlimited
  | Current stacksize for task 21: unlimited
  | Current stacksize for task 22: unlimited
  | Current stacksize for task 23: unlimited
  | Current stacksize for task 24: unlimited
  | Current stacksize for task 25: unlimited
  | Current stacksize for task 26: unlimited
  | Current stacksize for task 27: unlimited
  | Current stacksize for task 28: unlimited
  | Current stacksize for task 29: unlimited
  | Current stacksize for task 30: unlimited
  | Current stacksize for task 31: unlimited
  | Current stacksize for task 32: unlimited
  | Current stacksize for task 33: unlimited
  | Current stacksize for task 34: unlimited
  | Current stacksize for task 35: unlimited
  | Current stacksize for task 36: unlimited
  | Current stacksize for task 37: unlimited
  | Current stacksize for task 38: unlimited
  | Current stacksize for task 39: unlimited
 
  Consistency checks for the contents of control.in are next.
 
  MPI_IN_PLACE appears to work with this MPI implementation.
  | Keeping use_mpi_in_place .true. (see manual).
  Target number of points in a grid batch is not set. Defaulting to  100
  Method for grid partitioning is not set. Defaulting to parallel hash+maxmin partitioning.
  Batch size limit is not set. Defaulting to    200
  By default, will store active basis functions for each batch.
  If in need of memory, prune_basis_once .false. can be used to disable this option.
  communication_type for Hartree potential was not specified.
  Defaulting to calc_hartree .
  Defaulting to Pulay charge density mixer.
  Pulay mixer: Number of relevant iterations not set.
  Defaulting to    8 iterations.
  Pulay mixer: Number of initial linear mixing iterations not set.
  Defaulting to    0 iterations.
  Work space size for distributed Hartree potential not set.
  Defaulting to   0.200000E+03 MB.
  Mixing parameter for charge density mixing has not been set.
  Using default: charge_mix_param =     0.0500.
  The mixing parameter will be adjusted in iteration number     2 of the first full s.c.f. cycle only.
  Algorithm-dependent basis array size parameters:
  | n_max_pulay                         :        8
  Maximum number of self-consistency iterations not provided.
  Presetting  1000 iterations.
  Presetting      1001 iterations before the initial mixing cycle
  is restarted anyway using the sc_init_iter criterion / keyword.
  Presetting a factor      1.000 between actual scf density residual
  and density convergence criterion sc_accuracy_rho below which sc_init_iter
  takes no effect.
 * No s.c.f. convergence criteria (sc_accuracy_*) were provided in control.in.
 * The run will proceed with a reasonable default guess, but please check whether.
 * the s.c.f. cycles seem to take too much or too little time.
  Geometry relaxation not requested: no relaxation will be performed.
  Forces evaluation will include force correction term due to incomplete self-consistency (default).
 * Notice: The s.c.f. convergence criterion sc_accuracy_rho was not provided.
 * We used to stop in this case, and ask the user to provide reasonable
 * scf convergence criteria. However, this led some users to employ criteria
 * that led to extremely long run times, e.g., for simple relaxation.
 * We now preset a default value for sc_accuracy_rho if it is not set.
 * You may still wish to check if this setting is too tight or too loose for your needs.
 * Based on n_atoms and forces and force-correction status, FHI-aims chose sc_accuracy_rho =  0.113137E-04 .
  Force calculation: scf convergence accuracy of forces not set.
  Defaulting to 'sc_accuracy_forces not_checked'.
  Handling of forces: Unphysical translation and rotation will be removed from forces.
  No accuracy limit for integral partition fn. given. Defaulting to  0.1000E-14.
  No threshold value for u(r) in integrations given. Defaulting to  0.1000E-05.
  No occupation type (smearing scheme) given. Defaulting to Gaussian broadening, width =  0.1000E-01 eV.
  The width will be adjusted in iteration number     2 of the first full s.c.f. cycle only.
  S.C.F. convergence parameters will be adjusted in iteration number     2 of the first full s.c.f. cycle only.
  No accuracy for occupation numbers given. Defaulting to  0.1000E-12.
  No threshold value for occupation numbers given. Defaulting to  0.0000E+00.
  No accuracy for fermi level given. Defaulting to  0.1000E-19.
  Maximum # of iterations to find E_F not set. Defaulting to  200.
  Preferred method for the eigenvalue solver ('KS_method') not specified in 'control.in'.
  Calling BLACS routine to test compilation state
  Since ScaLAPACK support is enabled, defaulting to ELPA (via ELSI).
  Will not use alltoall communication since running on < 1024 CPUs.
  Threshold for basis singularities not set.
  Default threshold for basis singularities:  0.1000E-04
  partition_type (choice of integration weights) for integrals was not specified.
  | Using a version of the partition function of Stratmann and coworkers ('stratmann_sparse').
  | At each grid point, the set of atoms used to build the partition table is smoothly restricted to
  | only those atoms whose free-atom density would be non-zero at that grid point.
  Partitioning for Hartree potential was not defined. Using partition_type for integrals.
  | Adjusted default value of keyword multip_moments_threshold to:       0.10000000E-11
  | This value may affect high angular momentum components of the Hartree potential in periodic systems.
  No q(lm)/r^(l+1) cutoff set for long-range Hartree potential.
  | Using default value of  0.100000E-09 .
  | Verify using the multipole_threshold keyword.
  Defaulting to new monopole extrapolation.
  Density update method: automatic selection selected.
  WARNING: Switching off the compensation of charge integration errors
  on the 3D integration grid, since you have requested a DFPT calculation.
  This is unfortunately necessary since "compensate_multipole_errors" is
  not yet implemented for DFPT.
  Use the "compensate_multipole_errors" flag to overwrite this behaviour.
  Set 'collect_eigenvectors' to be '.true.' for use_density_matrix .false.
 
  Consistency checks for the contents of geometry.in are next.
 
  Number of empty states per atom not set in control.in .
  | Since you are using a method that relies on the unoccupied spectrum
  | (MP2,GW,RPA et al.), will use the full Hamiltonian size (see below)
  | as the max. possible number of states (occupied plus empty).

  Structure-dependent array size parameters: 
  | Maximum number of distinct radial functions  :       23
  | Maximum number of basis functions            :      114
  | Number of Kohn-Sham states (occupied + empty):      114
------------------------------------------------------------

------------------------------------------------------------
          Preparing all fixed parts of the calculation.
------------------------------------------------------------
  Determining machine precision:
    2.225073858507201E-308
  Setting up grids for atomic and cluster calculations.

  Creating wave function, potential, and density for free atoms.

  Species: C

  List of occupied orbitals and eigenvalues:
    n    l              occ      energy [Ha]    energy [eV]
    1    0           2.0000        -9.952440      -270.8197
    2    0           2.0000        -0.499232       -13.5848
    2    1           2.0000        -0.196847        -5.3565


  Species: H

  List of occupied orbitals and eigenvalues:
    n    l              occ      energy [Ha]    energy [eV]
    1    0           1.0000        -0.232378        -6.3233


  Species: Ag

  List of occupied orbitals and eigenvalues:
    n    l              occ      energy [Ha]    energy [eV]
    1    0           2.0000      -957.142604    -26045.1754
    2    0           2.0000      -137.629864     -3745.0992
    3    0           2.0000       -25.099958      -683.0046
    4    0           2.0000        -3.487154       -94.8903
    5    0           1.0000        -0.166341        -4.5264
    2    1           6.0000      -123.488145     -3360.2834
    3    1           6.0000       -20.483893      -557.3951
    4    1           6.0000        -2.148884       -58.4741
    3    2          10.0000       -13.192778      -358.9938
    4    2          10.0000        -0.275951        -7.5090


  Adding cutoff potential to free-atom effective potential.
  Creating fixed part of basis set: Ionic, confined, hydrogenic.
 
  C                    hydrogenic:
 
  List of hydrogenic basis orbitals: 
    n    l      effective z      eigenvalue [eV]  inner max. [A]     outer max. [A]     outer radius [A]   
    2    1         1.700000        -9.7616           1.230570           1.230570           4.607917
    3    2         6.000000       -54.4224           0.792453           0.792453           3.883070
    2    0         4.900000       -81.6679           0.082559           0.562749           3.078220
 
 
  H                    hydrogenic:
 
  List of hydrogenic basis orbitals: 
    n    l      effective z      eigenvalue [eV]  inner max. [A]     outer max. [A]     outer radius [A]   
    2    0         2.100000       -14.9728           0.193243           1.317208           4.583499
    2    1         3.500000       -41.6669           0.602369           0.602369           3.723403
 
 
  Ag                   ion:

  List of free ionic orbitals and eigenvalues:
    n    l      energy [Ha]    energy [eV]
    1    0      -958.009288    -26068.7591
    2    0      -138.477895     -3768.1752
    3    0       -25.944611      -705.9888
    4    0        -4.322659      -117.6255
    2    1      -124.335790     -3383.3490
    3    1       -21.328427      -580.3760
    4    1        -2.979395       -81.0735
    3    2       -14.037265      -381.9734
    4    2        -1.071315       -29.1520


  List of ionic basis orbitals and eigenvalues:
    n    l      energy [Ha]    energy [eV]    outer radius [A]
    5    1        -0.530848       -14.4451       4.586811

 
  Ag                   hydrogenic:
 
  List of hydrogenic basis orbitals: 
    n    l      effective z      eigenvalue [eV]  inner max. [A]     outer max. [A]     outer radius [A]   
    4    3         7.600000       -49.1160           1.110807           1.110807           4.421638
    3    0         2.600000        -9.1732           0.149597           2.489137           4.643229
    4    2         8.400000       -60.0006           0.428073           1.334373           4.367912
 
  Creating atomic-like basis functions for current effective potential.

  Species C                   :

  List of atomic basis orbitals and eigenvalues:
    n    l      energy [Ha]    energy [eV]    outer radius [A]
    1    0        -9.952440      -270.8197       1.934409
    2    0        -0.499232       -13.5848       4.496620
    2    1        -0.196847        -5.3565       4.551928


  Species H                   :

  List of atomic basis orbitals and eigenvalues:
    n    l      energy [Ha]    energy [eV]    outer radius [A]
    1    0        -0.232378        -6.3233       4.527807


  Species Ag                  :

  List of atomic basis orbitals and eigenvalues:
    n    l      energy [Ha]    energy [eV]    outer radius [A]
    1    0      -957.142604    -26045.1754       0.218529
    2    0      -137.629864     -3745.0992       0.595480
    3    0       -25.099958      -683.0046       1.384220
    4    0        -3.487154       -94.8903       3.462568
    5    0        -0.166341        -4.5264       4.586811
    2    1      -123.488145     -3360.2834       0.610219
    3    1       -20.483893      -557.3951       1.489569
    4    1        -2.148884       -58.4741       4.058994
    3    2       -13.192778      -358.9938       1.724930
    4    2        -0.275951        -7.5090       4.531079

  Assembling full basis from fixed parts.
  | Species C :   atomic orbital   1 s accepted.
  | Species C :    hydro orbital   2 s accepted.
  | Species C :   atomic orbital   2 s accepted.
  | Species C :   atomic orbital   2 p accepted.
  | Species C :    hydro orbital   2 p accepted.
  | Species C :    hydro orbital   3 d accepted.
  | Species H :   atomic orbital   1 s accepted.
  | Species H :    hydro orbital   2 s accepted.
  | Species H :    hydro orbital   2 p accepted.
  | Species Ag :   atomic orbital   1 s accepted.
  | Species Ag :   atomic orbital   2 s accepted.
  | Species Ag :   atomic orbital   3 s accepted.
  | Species Ag :   atomic orbital   4 s accepted.
  | Species Ag :   atomic orbital   5 s accepted.
  | Species Ag :    hydro orbital   3 s accepted.
  | Species Ag :   atomic orbital   2 p accepted.
  | Species Ag :   atomic orbital   3 p accepted.
  | Species Ag :   atomic orbital   4 p accepted.
  | Species Ag :    ionic orbital   5 p accepted.
  | Species Ag :   atomic orbital   3 d accepted.
  | Species Ag :    hydro orbital   4 d accepted.
  | Species Ag :   atomic orbital   4 d accepted.
  | Species Ag :    hydro orbital   4 f accepted.
 
  Basis size parameters after reduction:
  | Total number of radial functions:       23
  | Total number of basis functions :      114
 
  Per-task memory consumption for arrays in subroutine allocate_ext:
  |           8.519168MB.
  Testing on-site integration grid accuracy.
  |  Species  Function  <phi|h_atom|phi> (log., in eV)  <phi|h_atom|phi> (rad., in eV)
           1        1               -270.8196846608               -270.8196521136
           1        2                -10.5732782379                -10.5732587795
           1        3                 16.3341762879                 16.3303421581
           1        4                 -5.3580915186                 -5.3594941248
           1        5                  8.5322326461                  8.5082139888
           1        6                 27.4915615315                 27.4915696770
           2        7                 -6.3246251765                 -6.3233331181
           2        8                 14.1313906092                 14.1372326594
           2        9                 25.3615426212                 25.3616852158
           3       10             -26045.1754166020             -26045.1283337768 ***
           3       11              -3745.0991522527              -3745.0984357936
           3       12               -683.0046001409               -683.0045719798
           3       13                -94.8903018342                -94.8902994702
           3       14                 -4.5393920186                 -4.5500388404
           3       15                  6.3761442099                  6.2454543484 ***
           3       16              -3360.2833919951              -3360.2833898642
           3       17               -557.3951003218               -557.3950976601
           3       18                -58.4741016013                -58.4741005184
           3       19                  1.0420005936                  1.0366614909
           3       20               -358.9937617721               -358.9937609032
           3       21                 17.5754083405                 17.5754868900
           3       22                 -6.2857328967                 -6.2858902696
           3       23                 23.9298026147                 23.9298230637
 * Note: Onsite integrals marked "***" above are less accurate than
 * onsite_accuracy_threshold =    0.03000 eV. Usually, this is harmless.
 * However, one integral did have a negative value. This integral could be important.
 * When in doubt, tighten the "radial" and/or "radial_multiplier" flags to check.

  Preparing densities etc. for the partition functions (integrals / Hartree potential).

  Preparations completed.
  max(cpu_time)          :      0.327 s.
  Wall clock time (cpu1) :      0.340 s.
------------------------------------------------------------

------------------------------------------------------------
          Begin self-consistency loop: Initialization.

          Date     :  20210705, Time     :  094130.521
------------------------------------------------------------

  Initializing index lists of integration centers etc. from given atomic structure:
  | Number of centers in hartree potential         :        12
  | Number of centers in hartree multipole         :        12
  | Number of centers in electron density summation:        12
  | Number of centers in basis integrals           :        12
  | Number of centers in integrals                 :        12
  | Number of centers in hamiltonian               :        12
  * Using 40 tasks for Scalapack Eigenvalue solver.
  Detailed listing of tasks and assigned k-points:
  (for non-periodic systems, the "k-point" denotes an internal label only)
   Task     0 k-point     1 on co2212
   Task     1 k-point     1 on co2212
   Task     2 k-point     1 on co2212
   Task     3 k-point     1 on co2212
   Task     4 k-point     1 on co2212
   Task     5 k-point     1 on co2212
   Task     6 k-point     1 on co2212
   Task     7 k-point     1 on co2212
   Task     8 k-point     1 on co2212
   Task     9 k-point     1 on co2212
   Task    10 k-point     1 on co2212
   Task    11 k-point     1 on co2212
   Task    12 k-point     1 on co2212
   Task    13 k-point     1 on co2212
   Task    14 k-point     1 on co2212
   Task    15 k-point     1 on co2212
   Task    16 k-point     1 on co2212
   Task    17 k-point     1 on co2212
   Task    18 k-point     1 on co2212
   Task    19 k-point     1 on co2212
   Task    20 k-point     1 on co2212
   Task    21 k-point     1 on co2212
   Task    22 k-point     1 on co2212
   Task    23 k-point     1 on co2212
   Task    24 k-point     1 on co2212
   Task    25 k-point     1 on co2212
   Task    26 k-point     1 on co2212
   Task    27 k-point     1 on co2212
   Task    28 k-point     1 on co2212
   Task    29 k-point     1 on co2212
   Task    30 k-point     1 on co2212
   Task    31 k-point     1 on co2212
   Task    32 k-point     1 on co2212
   Task    33 k-point     1 on co2212
   Task    34 k-point     1 on co2212
   Task    35 k-point     1 on co2212
   Task    36 k-point     1 on co2212
   Task    37 k-point     1 on co2212
   Task    38 k-point     1 on co2212
   Task    39 k-point     1 on co2212
  Tasks:    40 split into      8 X      5 BLACS grid
  Calculating block size based on n_basis =          114  max_nprow =            8  max_npcol =            5
  ScaLAPACK block size set to:            8
  Allocating        0.003 MB for ovlp
  Allocating        0.003 MB for ham
  Allocating        0.003 MB for eigenvec
  Required Scalapack workspace - INTEGER:            1  REAL:             1
  Partitioning the integration grid into batches with parallel hashing+maxmin method.
  | Number of batches:      726
  | Maximal batch size:     184
  | Minimal batch size:      24
  | Average batch size:      86.744
  | Standard deviation of batch sizes:      20.343

  Integration load balanced across    40 MPI tasks.
  Work distribution over tasks is as follows:
  Task     0 has       1582 integration points.
  Task     1 has       1559 integration points.
  Task     2 has       1558 integration points.
  Task     3 has       1577 integration points.
  Task     4 has       1559 integration points.
  Task     5 has       1588 integration points.
  Task     6 has       1557 integration points.
  Task     7 has       1565 integration points.
  Task     8 has       1579 integration points.
  Task     9 has       1616 integration points.
  Task    10 has       1555 integration points.
  Task    11 has       1560 integration points.
  Task    12 has       1557 integration points.
  Task    13 has       1586 integration points.
  Task    14 has       1593 integration points.
  Task    15 has       1553 integration points.
  Task    16 has       1567 integration points.
  Task    17 has       1555 integration points.
  Task    18 has       1628 integration points.
  Task    19 has       1589 integration points.
  Task    20 has       1562 integration points.
  Task    21 has       1555 integration points.
  Task    22 has       1559 integration points.
  Task    23 has       1630 integration points.
  Task    24 has       1556 integration points.
  Task    25 has       1639 integration points.
  Task    26 has       1558 integration points.
  Task    27 has       1583 integration points.
  Task    28 has       1554 integration points.
  Task    29 has       1622 integration points.
  Task    30 has       1575 integration points.
  Task    31 has       1542 integration points.
  Task    32 has       1574 integration points.
  Task    33 has       1558 integration points.
  Task    34 has       1553 integration points.
  Task    35 has       1547 integration points.
  Task    36 has       1585 integration points.
  Task    37 has       1626 integration points.
  Task    38 has       1558 integration points.
  Task    39 has       1557 integration points.
  Initializing partition tables, free-atom densities, potentials, etc. across the integration grid (initialize_grid_storage).
  | initialize_grid_storage: Actual outermost partition radius vs. multipole_radius_free
  | (-- VB: in principle, multipole_radius_free should be larger, hence this output)
  | Species        1: Confinement radius =              4.999999999999999 AA, multipole_radius_free =              5.019602836301480 AA.
  | Species        1: outer_partition_radius set to              5.019602836301480 AA .
  | Species        2: Confinement radius =              4.999999999999999 AA, multipole_radius_free =              5.054417573612229 AA.
  | Species        2: outer_partition_radius set to              5.054417573612229 AA .
  | Species        3: Confinement radius =              4.999999999999999 AA, multipole_radius_free =              5.058069901110960 AA.
  | Species        3: outer_partition_radius set to              5.058069901110960 AA .
  | The sparse table of interatomic distances needs          1.64 kbyte instead of         1.15 kbyte of memory.
  | Using the partition_type stratmann_smoother will reduce your memory usage.
  | Net number of integration points:    62976
  | of which are non-zero points    :    54572
  Renormalizing the initial density to the exact electron count on the 3D integration grid.
  | Initial density: Formal number of electrons (from input files) :      42.0000000000
  | Integrated number of electrons on 3D grid     :      41.9999685528
  | Charge integration error                      :      -0.0000314472
  | Normalization factor for density and gradient :       1.0000007487
  Obtaining max. number of non-zero basis functions in each batch (get_n_compute_maxes).
  | Maximal number of non-zero basis functions:      114 in task     0
  | Maximal number of non-zero basis functions:      114 in task     1
  | Maximal number of non-zero basis functions:      114 in task     2
  | Maximal number of non-zero basis functions:      114 in task     3
  | Maximal number of non-zero basis functions:      113 in task     4
  | Maximal number of non-zero basis functions:      114 in task     5
  | Maximal number of non-zero basis functions:      114 in task     6
  | Maximal number of non-zero basis functions:      113 in task     7
  | Maximal number of non-zero basis functions:      114 in task     8
  | Maximal number of non-zero basis functions:      114 in task     9
  | Maximal number of non-zero basis functions:      114 in task    10
  | Maximal number of non-zero basis functions:      114 in task    11
  | Maximal number of non-zero basis functions:      114 in task    12
  | Maximal number of non-zero basis functions:      114 in task    13
  | Maximal number of non-zero basis functions:      114 in task    14
  | Maximal number of non-zero basis functions:      114 in task    15
  | Maximal number of non-zero basis functions:      113 in task    16
  | Maximal number of non-zero basis functions:      114 in task    17
  | Maximal number of non-zero basis functions:      114 in task    18
  | Maximal number of non-zero basis functions:      114 in task    19
  | Maximal number of non-zero basis functions:      114 in task    20
  | Maximal number of non-zero basis functions:      114 in task    21
  | Maximal number of non-zero basis functions:      113 in task    22
  | Maximal number of non-zero basis functions:      114 in task    23
  | Maximal number of non-zero basis functions:      114 in task    24
  | Maximal number of non-zero basis functions:      114 in task    25
  | Maximal number of non-zero basis functions:      114 in task    26
  | Maximal number of non-zero basis functions:      114 in task    27
  | Maximal number of non-zero basis functions:      114 in task    28
  | Maximal number of non-zero basis functions:      114 in task    29
  | Maximal number of non-zero basis functions:      114 in task    30
  | Maximal number of non-zero basis functions:      114 in task    31
  | Maximal number of non-zero basis functions:      113 in task    32
  | Maximal number of non-zero basis functions:      114 in task    33
  | Maximal number of non-zero basis functions:      114 in task    34
  | Maximal number of non-zero basis functions:      114 in task    35
  | Maximal number of non-zero basis functions:      114 in task    36
  | Maximal number of non-zero basis functions:      114 in task    37
  | Maximal number of non-zero basis functions:      114 in task    38
  | Maximal number of non-zero basis functions:      114 in task    39
  Selecting the method for density update.
  Loop over occupied states selected for charge density update.
  Allocating        0.099 MB for KS_eigenvector
  Integrating Hamiltonian matrix: batch-based integration.
  Time summed over all CPUs for integration: real work        0.301 s, elapsed        0.333 s
  Integrating overlap matrix.
  Time summed over all CPUs for integration: real work        0.185 s, elapsed        0.216 s
  Deallocating overlap matrix.

  Updating Kohn-Sham eigenvalues and eigenvectors using ELSI and the ELPA eigensolver.
  Overlap matrix is not singular
  | Lowest and highest eigenvalues :  0.1146E-02,  0.5833E+01
  Finished singularity check of overlap matrix
  | Time :     0.005 s
  Starting ELPA eigensolver
  Finished Cholesky decomposition
  | Time :     0.002 s
  Finished transformation to standard eigenproblem
  | Time :     0.003 s
  Finished solving standard eigenproblem
  | Time :     0.003 s
  Finished back-transformation of eigenvectors
  | Time :     0.000 s

  Obtaining occupation numbers and chemical potential using ELSI.
  | Chemical potential (Fermi level):    -7.65251119 eV
  Writing Kohn-Sham eigenvalues.

  State    Occupation    Eigenvalue [Ha]    Eigenvalue [eV]
      1       2.00000         -10.075546         -274.16956
      2       2.00000         -10.075347         -274.16414
      3       2.00000         -10.075258         -274.16171
      4       2.00000         -10.074890         -274.15172
      5       2.00000         -10.074798         -274.14921
      6       2.00000         -10.074551         -274.14249
      7       2.00000          -0.993714          -27.04034
      8       2.00000          -0.884317          -24.06349
      9       2.00000          -0.884195          -24.06016
     10       2.00000          -0.746973          -20.32618
     11       2.00000          -0.746853          -20.32290
     12       2.00000          -0.660080          -17.96168
     13       2.00000          -0.633499          -17.23838
     14       2.00000          -0.577858          -15.72431
     15       2.00000          -0.568462          -15.46863
     16       2.00000          -0.568170          -15.46070
     17       2.00000          -0.508288          -13.83123
     18       2.00000          -0.498957          -13.57730
     19       2.00000          -0.498712          -13.57063
     20       2.00000          -0.408286          -11.11002
     21       2.00000          -0.408211          -11.10799
     22       0.00000          -0.214991           -5.85021
     23       0.00000          -0.214905           -5.84787
     24       0.00000          -0.072038           -1.96025
     25       0.00000          -0.061110           -1.66288
     26       0.00000          -0.014174           -0.38570
     27       0.00000          -0.013951           -0.37962
     28       0.00000           0.019586            0.53295
     29       0.00000           0.019678            0.53546
     30       0.00000           0.058897            1.60267
     31       0.00000           0.105289            2.86506
     32       0.00000           0.105295            2.86522
     33       0.00000           0.107710            2.93094
     34       0.00000           0.107885            2.93569
     35       0.00000           0.165155            4.49410
     36       0.00000           0.191287            5.20520
     37       0.00000           0.195815            5.32839
     38       0.00000           0.243078            6.61449
     39       0.00000           0.243093            6.61491
     40       0.00000           0.262268            7.13667
     41       0.00000           0.262386            7.13989
     42       0.00000           0.268814            7.31480
     43       0.00000           0.282636            7.69092
     44       0.00000           0.282756            7.69417
     45       0.00000           0.333433            9.07318
     46       0.00000           0.340926            9.27706
     47       0.00000           0.423037           11.51143
     48       0.00000           0.423117           11.51360
     49       0.00000           0.456253           12.41527
     50       0.00000           0.631625           17.18740
     51       0.00000           0.632171           17.20224
     52       0.00000           0.633537           17.23941
     53       0.00000           0.633787           17.24621
     54       0.00000           0.719218           19.57091
     55       0.00000           0.722381           19.65698
     56       0.00000           0.722709           19.66590
     57       0.00000           0.724106           19.70392
     58       0.00000           0.724215           19.70689
     59       0.00000           0.817202           22.23719
     60       0.00000           0.817247           22.23842
     61       0.00000           0.875475           23.82288
     62       0.00000           0.875538           23.82459
     63       0.00000           0.971967           26.44856
     64       0.00000           1.065698           28.99912
     65       0.00000           1.098236           29.88452
     66       0.00000           1.098510           29.89199
     67       0.00000           1.121422           30.51543
     68       0.00000           1.139671           31.01202
     69       0.00000           1.180293           32.11741
     70       0.00000           1.198074           32.60125
     71       0.00000           1.198077           32.60132
     72       0.00000           1.273103           34.64290
     73       0.00000           1.273136           34.64380
     74       0.00000           1.370784           37.30092
     75       0.00000           1.370972           37.30606
     76       0.00000           1.396847           38.01013
     77       0.00000           1.397149           38.01836
     78       0.00000           1.436608           39.09210
     79       0.00000           1.444080           39.29541
     80       0.00000           1.590540           43.28079
     81       0.00000           1.602662           43.61064
     82       0.00000           1.603472           43.63269
     83       0.00000           1.644219           44.74148
     84       0.00000           1.644619           44.75235
     85       0.00000           1.684484           45.83714
     86       0.00000           1.684671           45.84222
     87       0.00000           1.719604           46.79281
     88       0.00000           1.719708           46.79565
     89       0.00000           1.742005           47.40238
     90       0.00000           1.814985           49.38825
     91       0.00000           1.831348           49.83353
     92       0.00000           1.831897           49.84846
     93       0.00000           1.977497           53.81043
     94       0.00000           1.978525           53.83839
     95       0.00000           2.240215           60.95936
     96       0.00000           2.240360           60.96330
     97       0.00000           2.244095           61.06492
     98       0.00000           2.259075           61.47257
     99       0.00000           2.284201           62.15628
    100       0.00000           2.376983           64.68101
    101       0.00000           2.377313           64.68999
    102       0.00000           2.513435           68.39405
    103       0.00000           2.618070           71.24131
    104       0.00000           2.618894           71.26374
    105       0.00000           2.878727           78.33415
    106       0.00000           3.053143           83.08026
    107       0.00000           3.054364           83.11347
    108       0.00000           3.349829           91.15349
    109       0.00000           3.350621           91.17504
    110       0.00000           3.649181           99.29927
    111       0.00000           3.705943          100.84384
    112       0.00000           3.741140          101.80160
    113       0.00000           3.741301          101.80599
    114       0.00000           5.997187          163.19175

  Highest occupied state (VBM) at    -11.10798962 eV
  | Occupation number:      2.00000000

  Lowest unoccupied state (CBM) at    -5.85020834 eV
  | Occupation number:      0.00000000

  Overall HOMO-LUMO gap:      5.25778128 eV.
  Calculating total energy contributions from superposition of free atom densities.

  Total energy components:
  | Sum of eigenvalues            :        -140.07392798 Ha       -3811.60551267 eV
  | XC energy correction          :         -31.73385614 Ha        -863.52216117 eV
  | XC potential correction       :          41.76155791 Ha        1136.38980948 eV
  | Free-atom electrostatic energy:        -100.58733443 Ha       -2737.12063293 eV
  | Hartree energy correction     :           0.00000000 Ha           0.00000000 eV
  | vdW energy correction         :           0.00000000 Ha           0.00000000 eV
  | Entropy correction            :           0.00000000 Ha           0.00000000 eV
  | ---------------------------
  | Total energy                  :        -230.63356064 Ha       -6275.85849729 eV
  | Total energy, T -> 0          :        -230.63356064 Ha       -6275.85849729 eV  <-- do not rely on this value for anything but (periodic) metals
  | Electronic free energy        :        -230.63356064 Ha       -6275.85849729 eV

  Derived energy quantities:
  | Kinetic energy                :         226.90946501 Ha        6174.52069898 eV
  | Electrostatic energy          :        -425.80916951 Ha      -11586.85703511 eV
  | Energy correction for multipole
  | error in Hartree potential    :           0.00000000 Ha           0.00000000 eV
  | Sum of eigenvalues per atom                           :        -317.63379272 eV
  | Total energy (T->0) per atom                          :        -522.98820811 eV  <-- do not rely on this value for anything but (periodic) metals
  | Electronic free energy per atom                       :        -522.98820811 eV
  Initialize hartree_potential_storage
  Max. number of atoms included in rho_multipole:           12

  End scf initialization - timings             :  max(cpu_time)    wall_clock(cpu1)
  | Time for scf. initialization               :        0.070 s           0.073 s
  | Boundary condition initialization          :        0.000 s           0.000 s
  | Integration                                :        0.015 s           0.015 s
  | Solution of K.-S. eqns.                    :        0.016 s           0.017 s
  | Grid partitioning                          :        0.023 s           0.023 s
  | Preloading free-atom quantities on grid    :        0.010 s           0.011 s
  | Free-atom superposition energy             :        0.002 s           0.002 s
  | Total energy evaluation                    :        0.000 s           0.000 s

  Partial memory accounting:
  | Current value for overall tracked memory usage:
  |   Minimum:        0.154 MB (on task 39)
  |   Maximum:        0.159 MB (on task  0)
  |   Average:        0.158 MB
  | Peak value for overall tracked memory usage:
  |   Minimum:        0.779 MB (on task 32 after allocating wave)
  |   Maximum:        0.788 MB (on task  0 after allocating wave)
  |   Average:        0.786 MB
  | Largest tracked array allocation so far:
  |   Minimum:        0.159 MB (H_times_psi on task  4)
  |   Maximum:        0.265 MB (all_coords on task 18)
  |   Average:        0.170 MB
  Note:  These values currently only include a subset of arrays which are explicitly tracked.
  The "true" memory usage will be greater.
------------------------------------------------------------
  Evaluating new KS density.
  Integration grid: deviation in total charge (<rho> - N_e) =   2.131628E-14

  Time for density update prior                :  max(cpu_time)    wall_clock(cpu1)
  | self-consistency iterative process         :        0.005 s           0.005 s

------------------------------------------------------------
          Begin self-consistency iteration #    1

  Date     :  20210705, Time     :  094130.600
------------------------------------------------------------
  Pulay mixing of updated and previous charge densities.

  Evaluating partitioned Hartree potential by multipole expansion.
  | Analytical far-field extrapolation by fixed multipoles:
  | Hartree multipole sum: apparent total charge =  -0.684381E-04
  Summing up the Hartree potential.
  Time summed over all CPUs for potential: real work        0.429 s, elapsed        0.451 s
  | RMS charge density error from multipole expansion :   0.186014E-02

  Integrating Hamiltonian matrix: batch-based integration.
  Time summed over all CPUs for integration: real work        0.267 s, elapsed        0.296 s

  Updating Kohn-Sham eigenvalues and eigenvectors using ELSI and the ELPA eigensolver.
  Starting ELPA eigensolver
  Finished transformation to standard eigenproblem
  | Time :     0.001 s
  Finished solving standard eigenproblem
  | Time :     0.002 s
  Finished back-transformation of eigenvectors
  | Time :     0.001 s

  Obtaining occupation numbers and chemical potential using ELSI.
  | Chemical potential (Fermi level):    -7.12190376 eV
  Writing Kohn-Sham eigenvalues.

  State    Occupation    Eigenvalue [Ha]    Eigenvalue [eV]
      1       2.00000         -10.045320         -273.34707
      2       2.00000         -10.045118         -273.34157
      3       2.00000         -10.045043         -273.33952
      4       2.00000         -10.044661         -273.32912
      5       2.00000         -10.044582         -273.32699
      6       2.00000         -10.044357         -273.32085
      7       2.00000          -0.972307          -26.45781
      8       2.00000          -0.864002          -23.51070
      9       2.00000          -0.863886          -23.50752
     10       2.00000          -0.727824          -19.80511
     11       2.00000          -0.727700          -19.80172
     12       2.00000          -0.643748          -17.51728
     13       2.00000          -0.611838          -16.64896
     14       2.00000          -0.563576          -15.33567
     15       2.00000          -0.551225          -14.99958
     16       2.00000          -0.550955          -14.99224
     17       2.00000          -0.491058          -13.36236
     18       2.00000          -0.481777          -13.10982
     19       2.00000          -0.481551          -13.10368
     20       2.00000          -0.391020          -10.64019
     21       2.00000          -0.390955          -10.63842
     22       0.00000          -0.198026           -5.38857
     23       0.00000          -0.197949           -5.38647
     24       0.00000          -0.054631           -1.48658
     25       0.00000          -0.052883           -1.43902
     26       0.00000          -0.005537           -0.15068
     27       0.00000          -0.005313           -0.14457
     28       0.00000           0.029480            0.80220
     29       0.00000           0.029574            0.80476
     30       0.00000           0.067240            1.82969
     31       0.00000           0.119849            3.26126
     32       0.00000           0.119852            3.26134
     33       0.00000           0.121648            3.31022
     34       0.00000           0.121827            3.31507
     35       0.00000           0.175248            4.76875
     36       0.00000           0.200884            5.46634
     37       0.00000           0.208113            5.66304
     38       0.00000           0.252902            6.88182
     39       0.00000           0.252912            6.88208
     40       0.00000           0.274853            7.47914
     41       0.00000           0.274978            7.48254
     42       0.00000           0.280595            7.63539
     43       0.00000           0.295281            8.03499
     44       0.00000           0.295397            8.03815
     45       0.00000           0.353171            9.61027
     46       0.00000           0.361370            9.83338
     47       0.00000           0.434263           11.81691
     48       0.00000           0.434337           11.81890
     49       0.00000           0.470097           12.79200
     50       0.00000           0.643111           17.49995
     51       0.00000           0.643376           17.50714
     52       0.00000           0.643822           17.51930
     53       0.00000           0.648621           17.64987
     54       0.00000           0.730152           19.86845
     55       0.00000           0.732856           19.94204
     56       0.00000           0.733198           19.95133
     57       0.00000           0.737165           20.05928
     58       0.00000           0.737262           20.06192
     59       0.00000           0.831833           22.63532
     60       0.00000           0.831877           22.63651
     61       0.00000           0.890987           24.24499
     62       0.00000           0.891045           24.24658
     63       0.00000           0.986346           26.83985
     64       0.00000           1.078579           29.34963
     65       0.00000           1.110000           30.20462
     66       0.00000           1.110262           30.21177
     67       0.00000           1.131599           30.79237
     68       0.00000           1.152943           31.37319
     69       0.00000           1.195868           32.54123
     70       0.00000           1.208690           32.89013
     71       0.00000           1.208703           32.89047
     72       0.00000           1.285899           34.99109
     73       0.00000           1.285923           34.99175
     74       0.00000           1.385874           37.71155
     75       0.00000           1.386069           37.71686
     76       0.00000           1.412647           38.44007
     77       0.00000           1.412953           38.44840
     78       0.00000           1.446437           39.35956
     79       0.00000           1.453939           39.56368
     80       0.00000           1.605547           43.68916
     81       0.00000           1.613982           43.91867
     82       0.00000           1.614808           43.94115
     83       0.00000           1.660282           45.17856
     84       0.00000           1.660697           45.18985
     85       0.00000           1.701534           46.30110
     86       0.00000           1.701730           46.30644
     87       0.00000           1.737542           47.28094
     88       0.00000           1.737639           47.28355
     89       0.00000           1.753090           47.70401
     90       0.00000           1.829753           49.79012
     91       0.00000           1.846364           50.24211
     92       0.00000           1.846932           50.25758
     93       0.00000           1.991986           54.20471
     94       0.00000           1.993024           54.23293
     95       0.00000           2.254001           61.33449
     96       0.00000           2.254179           61.33933
     97       0.00000           2.255974           61.38818
     98       0.00000           2.275034           61.90683
     99       0.00000           2.302888           62.66477
    100       0.00000           2.394320           65.15277
    101       0.00000           2.394638           65.16141
    102       0.00000           2.527417           68.77452
    103       0.00000           2.631111           71.59617
    104       0.00000           2.631941           71.61876
    105       0.00000           2.896520           78.81832
    106       0.00000           3.070062           83.54063
    107       0.00000           3.071289           83.57403
    108       0.00000           3.364178           91.54393
    109       0.00000           3.364969           91.56546
    110       0.00000           3.669434           99.85038
    111       0.00000           3.722088          101.28317
    112       0.00000           3.756267          102.21322
    113       0.00000           3.756424          102.21749
    114       0.00000           6.009810          163.53525

  Highest occupied state (VBM) at    -10.63842268 eV
  | Occupation number:      2.00000000

  Lowest unoccupied state (CBM) at    -5.38857436 eV
  | Occupation number:      0.00000000

  Overall HOMO-LUMO gap:      5.24984833 eV.

  Total energy components:
  | Sum of eigenvalues            :        -139.16500284 Ha       -3786.87240112 eV
  | XC energy correction          :         -31.80029771 Ha        -865.33012822 eV
  | XC potential correction       :          41.84906821 Ha        1138.77108591 eV
  | Free-atom electrostatic energy:        -100.58733443 Ha       -2737.12063293 eV
  | Hartree energy correction     :          -0.87500400 Ha         -23.81007027 eV
  | vdW energy correction         :           0.00000000 Ha           0.00000000 eV
  | Entropy correction            :           0.00000000 Ha           0.00000000 eV
  | ---------------------------
  | Total energy                  :        -230.57857077 Ha       -6274.36214662 eV
  | Total energy, T -> 0          :        -230.57857077 Ha       -6274.36214662 eV  <-- do not rely on this value for anything but (periodic) metals
  | Electronic free energy        :        -230.57857077 Ha       -6274.36214662 eV

  Derived energy quantities:
  | Kinetic energy                :         227.27553999 Ha        6184.48210605 eV
  | Electrostatic energy          :        -426.05381304 Ha      -11593.51412446 eV
  | Energy correction for multipole
  | error in Hartree potential    :           0.00510747 Ha           0.13898144 eV
  | Sum of eigenvalues per atom                           :        -315.57270009 eV
  | Total energy (T->0) per atom                          :        -522.86351222 eV  <-- do not rely on this value for anything but (periodic) metals
  | Electronic free energy per atom                       :        -522.86351222 eV
  Evaluating new KS density.
  Integration grid: deviation in total charge (<rho> - N_e) =   2.842171E-14

  Self-consistency convergence accuracy:
  | Change of charge density      :  0.5205E+00
  | Change of sum of eigenvalues  :  0.2473E+02 eV
  | Change of total energy        :  0.1496E+01 eV


------------------------------------------------------------
  End self-consistency iteration #     1       :  max(cpu_time)    wall_clock(cpu1)
  | Time for this iteration                    :        0.033 s           0.033 s
  | Charge density update                      :        0.004 s           0.005 s
  | Density mixing                             :        0.000 s           0.000 s
  | Hartree multipole update                   :        0.002 s           0.002 s
  | Hartree multipole summation                :        0.012 s           0.013 s
  | Integration                                :        0.008 s           0.007 s
  | Solution of K.-S. eqns.                    :        0.005 s           0.004 s
  | Total energy evaluation                    :        0.001 s           0.000 s

  Partial memory accounting:
  | Current value for overall tracked memory usage:
  |   Minimum:        0.154 MB (on task 39)
  |   Maximum:        0.159 MB (on task  0)
  |   Average:        0.158 MB
  | Peak value for overall tracked memory usage:
  |   Minimum:        0.779 MB (on task 32 after allocating wave)
  |   Maximum:        0.788 MB (on task  0 after allocating wave)
  |   Average:        0.786 MB
  | Largest tracked array allocation so far:
  |   Minimum:        0.159 MB (H_times_psi on task  4)
  |   Maximum:        0.265 MB (all_coords on task 18)
  |   Average:        0.170 MB
  Note:  These values currently only include a subset of arrays which are explicitly tracked.
  The "true" memory usage will be greater.
------------------------------------------------------------

------------------------------------------------------------
          Begin self-consistency iteration #    2

  Date     :  20210705, Time     :  094130.634
------------------------------------------------------------
  Pulay mixing of updated and previous charge densities.

  Evaluating partitioned Hartree potential by multipole expansion.
  | Analytical far-field extrapolation by fixed multipoles:
  | Hartree multipole sum: apparent total charge =  -0.440108E-03
  Summing up the Hartree potential.
  Time summed over all CPUs for potential: real work        0.423 s, elapsed        0.435 s
  | RMS charge density error from multipole expansion :   0.208410E-01

  Integrating Hamiltonian matrix: batch-based integration.
  Time summed over all CPUs for integration: real work        0.267 s, elapsed        0.294 s

  Updating Kohn-Sham eigenvalues and eigenvectors using ELSI and the ELPA eigensolver.
  Starting ELPA eigensolver
  Finished transformation to standard eigenproblem
  | Time :     0.001 s
  Finished solving standard eigenproblem
  | Time :     0.002 s
  Finished back-transformation of eigenvectors
  | Time :     0.001 s

  Obtaining occupation numbers and chemical potential using ELSI.
  | Chemical potential (Fermi level):    -1.90039804 eV
  Highest occupied state (VBM) at     -6.20938426 eV
  | Occupation number:      2.00000000

  Lowest unoccupied state (CBM) at    -1.07020768 eV
  | Occupation number:      0.00000000

  Overall HOMO-LUMO gap:      5.13917657 eV.

  Checking to see if s.c.f. parameters should be adjusted.
  The system likely has a gap. Increased the default Pulay mixing parameter (charge_mix_param). Value:   0.200000 .
  Kept the default occupation width. Value:   0.010000 eV.

  Total energy components:
  | Sum of eigenvalues            :        -130.37471613 Ha       -3547.67652969 eV
  | XC energy correction          :         -32.50264447 Ha        -884.44195589 eV
  | XC potential correction       :          42.77405883 Ha        1163.94136141 eV
  | Free-atom electrostatic energy:        -100.58733443 Ha       -2737.12063293 eV
  | Hartree energy correction     :          -9.65545546 Ha        -262.73831096 eV
  | vdW energy correction         :           0.00000000 Ha           0.00000000 eV
  | Entropy correction            :           0.00000000 Ha           0.00000000 eV
  | ---------------------------
  | Total energy                  :        -230.34609165 Ha       -6268.03606806 eV
  | Total energy, T -> 0          :        -230.34609165 Ha       -6268.03606806 eV  <-- do not rely on this value for anything but (periodic) metals
  | Electronic free energy        :        -230.34609165 Ha       -6268.03606806 eV

  Derived energy quantities:
  | Kinetic energy                :         230.34451399 Ha        6267.99313759 eV
  | Electrostatic energy          :        -428.18796117 Ha      -11651.58724977 eV
  | Energy correction for multipole
  | error in Hartree potential    :           0.05514399 Ha           1.50054423 eV
  | Sum of eigenvalues per atom                           :        -295.63971081 eV
  | Total energy (T->0) per atom                          :        -522.33633901 eV  <-- do not rely on this value for anything but (periodic) metals
  | Electronic free energy per atom                       :        -522.33633901 eV
  Evaluating new KS density.
  Integration grid: deviation in total charge (<rho> - N_e) =  -7.105427E-15

  Self-consistency convergence accuracy:
  | Change of charge density      :  0.4817E+00
  | Change of sum of eigenvalues  :  0.2392E+03 eV
  | Change of total energy        :  0.6326E+01 eV


------------------------------------------------------------
  End self-consistency iteration #     2       :  max(cpu_time)    wall_clock(cpu1)
  | Time for this iteration                    :        0.030 s           0.030 s
  | Charge density update                      :        0.004 s           0.004 s
  | Density mixing                             :        0.001 s           0.000 s
  | Hartree multipole update                   :        0.001 s           0.001 s
  | Hartree multipole summation                :        0.012 s           0.012 s
  | Integration                                :        0.008 s           0.008 s
  | Solution of K.-S. eqns.                    :        0.004 s           0.004 s
[...]
  | RMS delta_rho error from multipole expansion :   0.708744E-01

  Integrating first-order-Hamiltonian matrix: batch-based integration.
  Time summed over all CPUs for integration: real work        0.356 s, elapsed        0.398 s
  End CPSCF iteration #     4                  :  max(cpu_time)    wall_clock(cpu1)
  | Time for this iteration                    :        0.059 s           0.059 s
  | first_order_density                        :        0.008 s           0.008 s
  | first_order_potential                      :        0.037 s           0.037 s
  | first_order_H                              :        0.010 s           0.010 s
  | first_order_DM                             :        0.002 s           0.002 s
  | Solution of Sternheimer eqns.              :        0.001 s           0.001 s
------------------------------------------------------------

-------------------------------------------------------------
          Begin CP-self-consistency iteration #    5

  Date     :  20210705, Time     :  094131.277
------------------------------------------------------------

  CPSCF convergence accuracy:
  | Change of first_order_density_matrix     :  0.5427E-01
  Integrating first_order_rho: batch-based integration.
  Time summed over all CPUs for integration: real work        0.274 s, elapsed        0.311 s

  Evaluating partitioned Hartree potential by multipole expansion.
  | Analytical far-field extrapolation by fixed multipoles:
  | Hartree multipole sum: apparent total charge =   0.389628E-13
  Summing up the Hartree potential.
  Time summed over all CPUs for potential: real work        0.421 s, elapsed        0.436 s
  | RMS delta_rho error from multipole expansion :   0.104047E+00


  Evaluating partitioned Hartree potential by multipole expansion.
  | Analytical far-field extrapolation by fixed multipoles:
  | Hartree multipole sum: apparent total charge =  -0.170958E-05
  Summing up the Hartree potential.
  Time summed over all CPUs for potential: real work        0.413 s, elapsed        0.428 s
  | RMS delta_rho error from multipole expansion :   0.104048E+00


  Evaluating partitioned Hartree potential by multipole expansion.
  | Analytical far-field extrapolation by fixed multipoles:
  | Hartree multipole sum: apparent total charge =   0.000000E+00
  Summing up the Hartree potential.
  Time summed over all CPUs for potential: real work        0.413 s, elapsed        0.427 s
  | RMS delta_rho error from multipole expansion :   0.719536E-01

  Integrating first-order-Hamiltonian matrix: batch-based integration.
  Time summed over all CPUs for integration: real work        0.357 s, elapsed        0.398 s
  End CPSCF iteration #     5                  :  max(cpu_time)    wall_clock(cpu1)
  | Time for this iteration                    :        0.059 s           0.060 s
  | first_order_density                        :        0.008 s           0.007 s
  | first_order_potential                      :        0.037 s           0.037 s
  | first_order_H                              :        0.010 s           0.010 s
  | first_order_DM                             :        0.002 s           0.003 s
  | Solution of Sternheimer eqns.              :        0.001 s           0.002 s
------------------------------------------------------------

-------------------------------------------------------------
          Begin CP-self-consistency iteration #    6

  Date     :  20210705, Time     :  094131.337
------------------------------------------------------------

  CPSCF convergence accuracy:
  | Change of first_order_density_matrix     :  0.1794E-01
  Integrating first_order_rho: batch-based integration.
  Time summed over all CPUs for integration: real work        0.274 s, elapsed        0.310 s

  Evaluating partitioned Hartree potential by multipole expansion.
  | Analytical far-field extrapolation by fixed multipoles:
  | Hartree multipole sum: apparent total charge =   0.653316E-13
  Summing up the Hartree potential.
  Time summed over all CPUs for potential: real work        0.423 s, elapsed        0.438 s
  | RMS delta_rho error from multipole expansion :   0.103721E+00


  Evaluating partitioned Hartree potential by multipole expansion.
  | Analytical far-field extrapolation by fixed multipoles:
  | Hartree multipole sum: apparent total charge =  -0.150535E-05
  Summing up the Hartree potential.
  Time summed over all CPUs for potential: real work        0.414 s, elapsed        0.428 s
  | RMS delta_rho error from multipole expansion :   0.103724E+00


  Evaluating partitioned Hartree potential by multipole expansion.
  | Analytical far-field extrapolation by fixed multipoles:
  | Hartree multipole sum: apparent total charge =   0.000000E+00
  Summing up the Hartree potential.
  Time summed over all CPUs for potential: real work        0.414 s, elapsed        0.429 s
  | RMS delta_rho error from multipole expansion :   0.717171E-01

  Integrating first-order-Hamiltonian matrix: batch-based integration.
  Time summed over all CPUs for integration: real work        0.357 s, elapsed        0.398 s
  End CPSCF iteration #     6                  :  max(cpu_time)    wall_clock(cpu1)
  | Time for this iteration                    :        0.058 s           0.058 s
  | first_order_density                        :        0.008 s           0.008 s
  | first_order_potential                      :        0.037 s           0.037 s
  | first_order_H                              :        0.010 s           0.010 s
  | first_order_DM                             :        0.002 s           0.002 s
  | Solution of Sternheimer eqns.              :        0.001 s           0.001 s
------------------------------------------------------------

-------------------------------------------------------------
          Begin CP-self-consistency iteration #    7

  Date     :  20210705, Time     :  094131.395
------------------------------------------------------------

  CPSCF convergence accuracy:
  | Change of first_order_density_matrix     :  0.2830E-02
  Integrating first_order_rho: batch-based integration.
  Time summed over all CPUs for integration: real work        0.273 s, elapsed        0.310 s

  Evaluating partitioned Hartree potential by multipole expansion.
  | Analytical far-field extrapolation by fixed multipoles:
  | Hartree multipole sum: apparent total charge =   0.346336E-13
  Summing up the Hartree potential.
  Time summed over all CPUs for potential: real work        0.422 s, elapsed        0.437 s
  | RMS delta_rho error from multipole expansion :   0.103690E+00


  Evaluating partitioned Hartree potential by multipole expansion.
  | Analytical far-field extrapolation by fixed multipoles:
  | Hartree multipole sum: apparent total charge =  -0.168968E-05
  Summing up the Hartree potential.
  Time summed over all CPUs for potential: real work        0.414 s, elapsed        0.427 s
  | RMS delta_rho error from multipole expansion :   0.103692E+00


  Evaluating partitioned Hartree potential by multipole expansion.
  | Analytical far-field extrapolation by fixed multipoles:
  | Hartree multipole sum: apparent total charge =   0.000000E+00
  Summing up the Hartree potential.
  Time summed over all CPUs for potential: real work        0.414 s, elapsed        0.428 s
  | RMS delta_rho error from multipole expansion :   0.717012E-01

  Integrating first-order-Hamiltonian matrix: batch-based integration.
  Time summed over all CPUs for integration: real work        0.356 s, elapsed        0.397 s
  End CPSCF iteration #     7                  :  max(cpu_time)    wall_clock(cpu1)
  | Time for this iteration                    :        0.058 s           0.059 s
  | first_order_density                        :        0.008 s           0.008 s
  | first_order_potential                      :        0.037 s           0.036 s
  | first_order_H                              :        0.010 s           0.011 s
  | first_order_DM                             :        0.002 s           0.002 s
  | Solution of Sternheimer eqns.              :        0.001 s           0.001 s
------------------------------------------------------------

-------------------------------------------------------------
          Begin CP-self-consistency iteration #    8

  Date     :  20210705, Time     :  094131.454
------------------------------------------------------------

  CPSCF convergence accuracy:
  | Change of first_order_density_matrix     :  0.1193E-02
  Integrating first_order_rho: batch-based integration.
  Time summed over all CPUs for integration: real work        0.274 s, elapsed        0.312 s

  Evaluating partitioned Hartree potential by multipole expansion.
  | Analytical far-field extrapolation by fixed multipoles:
  | Hartree multipole sum: apparent total charge =   0.460470E-13
  Summing up the Hartree potential.
  Time summed over all CPUs for potential: real work        0.421 s, elapsed        0.436 s
  | RMS delta_rho error from multipole expansion :   0.103685E+00


  Evaluating partitioned Hartree potential by multipole expansion.
  | Analytical far-field extrapolation by fixed multipoles:
  | Hartree multipole sum: apparent total charge =  -0.164340E-05
  Summing up the Hartree potential.
  Time summed over all CPUs for potential: real work        0.413 s, elapsed        0.427 s
  | RMS delta_rho error from multipole expansion :   0.103688E+00


  Evaluating partitioned Hartree potential by multipole expansion.
  | Analytical far-field extrapolation by fixed multipoles:
  | Hartree multipole sum: apparent total charge =   0.000000E+00
  Summing up the Hartree potential.
  Time summed over all CPUs for potential: real work        0.413 s, elapsed        0.427 s
  | RMS delta_rho error from multipole expansion :   0.716995E-01

  Integrating first-order-Hamiltonian matrix: batch-based integration.
  Time summed over all CPUs for integration: real work        0.358 s, elapsed        0.396 s
  End CPSCF iteration #     8                  :  max(cpu_time)    wall_clock(cpu1)
  | Time for this iteration                    :        0.058 s           0.058 s
  | first_order_density                        :        0.008 s           0.008 s
  | first_order_potential                      :        0.037 s           0.037 s
  | first_order_H                              :        0.010 s           0.010 s
  | first_order_DM                             :        0.002 s           0.002 s
  | Solution of Sternheimer eqns.              :        0.001 s           0.001 s
------------------------------------------------------------

-------------------------------------------------------------
          Begin CP-self-consistency iteration #    9

  Date     :  20210705, Time     :  094131.512
------------------------------------------------------------

  CP-self-consistency cycle converged in    8 iterations

  End CPSCF iteration #     9                  :  max(cpu_time)    wall_clock(cpu1)
  | Time for this iteration                    :        0.002 s           0.002 s
  | first_order_density                        :        0.008 s           0.008 s
  | first_order_potential                      :        0.037 s           0.037 s
  | first_order_H                              :        0.010 s           0.010 s
  | first_order_DM                             :        0.002 s           0.002 s
  | Solution of Sternheimer eqns.              :        0.001 s           0.001 s
------------------------------------------------------------
  Summing up the Hartree potential.
  Time summed over all CPUs for integrate_polarizability: real work        0.002 s, elapsed        0.003 s

DFPT for polarizability:--->
   75.7313855627728      -8.915090887740007E-014  7.333023077649159E-014
 -6.805667140952210E-014   75.7826846016505      -1.254552017826427E-014
  6.195044477408373E-014  2.504663143554353E-013   30.8319837070615
The mean polarizability is   60.782018
DFPT polarizability (Bohr^3)        xx        yy        zz        xy        xz        yz
  | Polarizability:--->                        75.731385563             75.782684602             30.831983707             -0.000000000              0.000000000             -0.000000000

                                               :  max(cpu_time)    wall_clock(cpu1)
  | Time for polarizability calculation        :        0.000 s           0.000 s
===========================================================================

------------------------------------------------------------------------------
  Final output of selected total energy values:

  The following output summarizes some interesting total energy values
  at the end of a run (AFTER all relaxation, molecular dynamics, etc.).

  | Total energy of the DFT / Hartree-Fock s.c.f. calculation      :          -6267.482703303 eV
  | Final zero-broadening corrected energy (caution - metals only) :          -6267.482703303 eV
  | For reference only, the value of 1 Hartree used in FHI-aims is :             27.211384500 eV

  Before relying on these values, please be sure to understand exactly which
  total energy value is referred to by a given number. Different objects may
  all carry the same name 'total energy'. Definitions:

  Total energy of the DFT / Hartree-Fock s.c.f. calculation:
  | Note that this energy does not include ANY quantities calculated after the
  | s.c.f. cycle, in particular not ANY RPA, MP2, etc. many-body perturbation terms.

  Final zero-broadening corrected energy:
  | For metallic systems only, a broadening of the occupation numbers at the Fermi
  | level can be extrapolated back to zero broadening by an electron-gas inspired
  | formula. For all systems that are not real metals, this value can be
  | meaningless and should be avoided.

------------------------------------------------------------------------------
  Methods described in the following list of references were used in this FHI-aims run.
  If you publish the results, please make sure to cite these reference if they apply.
  FHI-aims is an academic code, and for our developers (often, Ph.D. students
  and postdocs), scientific credit in the community is essential.
  Thank you for helping us!

  For any use of FHI-aims, please cite:

    Volker Blum, Ralf Gehrke, Felix Hanke, Paula Havu, Ville Havu,
    Xinguo Ren, Karsten Reuter, and Matthias Scheffler
    'Ab initio molecular simulations with numeric atom-centered orbitals'
    Computer Physics Communications 180, 2175-2196 (2009)
    http://dx.doi.org/10.1016/j.cpc.2009.06.022


  The DFPT (perturbation by an electric field) part of the code was used.
  Here is the corresponding reference:

    Honghui Shang, Nathaniel Raimbault, Mariana Rossi,
    Christian Carbogno, Patrick Rinke and Matthias Scheffler,
    'All-Electron, Real-Space Perturbation Theory for Homogeneous
    Electric Fields: Theory, Implementation, and Application within dft'
    New Journal of Physics, 20(7):073040, 2018


  The ELSI infrastructure was used in your run to solve the Kohn-Sham electronic structure.
  Please check out http://elsi-interchange.org to learn more.
  If scalability is important for your project, please acknowledge ELSI by citing:

    V. W-z. Yu, F. Corsetti, A. Garcia, W. P. Huhn, M. Jacquelin, W. Jia,
    B. Lange, L. Lin, J. Lu, W. Mi, A. Seifitokaldani, A. Vazquez-Mayagoitia,
    C. Yang, H. Yang, and V. Blum
    'ELSI: A unified software interface for Kohn-Sham electronic structure solvers'
    Computer Physics Communications 222, 267-285 (2018).
    http://dx.doi.org/10.1016/j.cpc.2017.09.007


  For the real-space grid partitioning and parallelization used in this calculation, please cite:

    Ville Havu, Volker Blum, Paula Havu, and Matthias Scheffler,
    'Efficient O(N) integration for all-electron electronic structure calculation'
    'using numerically tabulated basis functions'
    Journal of Computational Physics 228, 8367-8379 (2009).
    http://dx.doi.org/10.1016/j.jcp.2009.08.008

  Of course, there are many other important community references, e.g., those cited in the
  above references. Our list is limited to references that describe implementations in the
  FHI-aims code. The reason is purely practical (length of this list) - please credit others as well.

 * A warning was issued further up regarding the accuracy of onsite integrals.
   An integral with a negative eigenvalue was among the flagged integrals.
   In most standard situations, this warning is probably harmless.
   If needed, this can be verified by adjusting the radial_multiplier flag.

------------------------------------------------------------
          Leaving FHI-aims.
          Date     :  20210705, Time     :  094131.523

          Computational steps:
          | Number of self-consistency cycles          :           21
          | Number of SCF (re)initializations          :            1

          Detailed time accounting                     :  max(cpu_time)    wall_clock(cpu1)
          | Total time                                 :        1.401 s           1.410 s
          | Preparation time                           :        0.327 s           0.340 s
          | Boundary condition initalization           :        0.000 s           0.000 s
          | Grid partitioning                          :        0.023 s           0.023 s
          | Preloading free-atom quantities on grid    :        0.010 s           0.011 s
          | Free-atom superposition energy             :        0.002 s           0.002 s
          | Total time for integrations                :        0.107 s           0.108 s
          | Transforming ovlp_3fn to ovlp_3KS          :        0.000 s           0.000 s
          | Total time for solution of K.-S. equations :        0.063 s           0.062 s
          | Total time for density & force components  :        0.073 s           0.072 s
          | Total time for mixing                      :        0.004 s           0.004 s
          | Total time for Hartree multipole update    :        0.017 s           0.015 s
          | Total time for Hartree multipole sum       :        0.154 s           0.154 s
          | Total time for total energy evaluation     :        0.004 s           0.003 s
          | Total time NSC force correction            :        0.020 s           0.020 s
          | Total time for scaled ZORA corrections     :        0.000 s           0.000 s
          | Total time for vdW correction              :        0.004 s           0.005 s
          | Total time for DFPT pol or diel            :        0.490 s           0.493 s
          | Total time for first_order_density         :        0.063 s           0.063 s
          | Total time for first_order_potential       :        0.293 s           0.293 s
          | Total time for first_order_H               :        0.083 s           0.081 s
          | Total time for first_order_DM              :        0.020 s           0.021 s
          | Total time for solving Sternheimer eqns.   :        0.009 s           0.010 s

          Partial memory accounting:
          | Residual value for overall tracked memory usage across tasks:     0.000000 MB (should be 0.000000 MB)
          | Peak values for overall tracked memory usage:
          |   Minimum:        0.951 MB (on task 32 after allocating h_times_wave)
          |   Maximum:        0.960 MB (on task  0 after allocating h_times_wave)
          |   Average:        0.958 MB
          | Largest tracked array allocation:
          |   Minimum:        0.476 MB (gradient_basis_wave on task  4)
          |   Maximum:        0.480 MB (gradient_basis_wave on task  0)
          |   Average:        0.480 MB
          Note:  These values currently only include a subset of arrays which are explicitly tracked.
          The "true" memory usage will be greater.

          Have a nice day.
------------------------------------------------------------
