------------------------------------------------------------
          Invoking FHI-aims ...

          When using FHI-aims, please cite the following reference:

            Volker Blum, Ralf Gehrke, Felix Hanke, Paula Havu,
            Ville Havu, Xinguo Ren, Karsten Reuter, and Matthias Scheffler,
            'Ab Initio Molecular Simulations with Numeric Atom-Centered Orbitals',
            Computer Physics Communications 180, 2175-2196 (2009)

          In addition, many other developments in FHI-aims are likely important for
          your particular application. A partial list of references is given at the end of
          this file. Thank you for giving credit to the authors of these developments.

          For any questions about FHI-aims, please visit our slack channel at

            https://fhi-aims.slack.com

          and our main development and support site at

            https://aims-git.rz-berlin.mpg.de .

          The latter site, in particular, has a wiki to collect information, as well
          as an issue tracker to log discussions, suggest improvements, and report issues
          or bugs. https://aims-git.rz-berlin.mpg.de is also the main development site
          of the project and all new and updated code versions can be obtained there.
          Please send an email to aims-coordinators@fhi-berlin.mpg.de and we will add
          you to these sites. They are for you and everyone is welcome there.

------------------------------------------------------------



  Date     :  20210705, Time     :  094203.155
  Time zero on CPU 1             :   0.522760000000000E-01  s.
  Internal wall clock time zero  :           394710123.155  s.

  FHI-aims created a unique identifier for this run for later identification
  aims_uuid : D663C1B5-C6A3-478D-A5CB-CC4F304E0050

  Build configuration of the current instance of FHI-aims
  -------------------------------------------------------
  FHI-aims version      : 210513
  Commit number         : 300bfe3f4
  CMake host system     : Linux-4.12.14-122.63-default
  CMake version         : 3.5.2
  Fortran compiler      : /mpcdf/soft/SLE_12/packages/x86_64/intel_parallel_studio/2020.1/compilers_and_libraries_2020.1.217/linux/mpi/intel64/bin/mpiifort (Intel) version 19.1.0.20200306
  Fortran compiler flags: -O3 -ip -fp-model precise
  C compiler            : /mpcdf/soft/SLE_12/packages/x86_64/intel/19.1.1/bin/icc (Intel) version 19.1.0.20200306
  C compiler flags      : -O3 -ip -fp-model precise -std=gnu99
  C++ compiler          : /mpcdf/soft/SLE_12/packages/x86_64/intel/19.1.1/bin/icpc (Intel) version 19.1.0.20200306
  C++ compiler flags    : -O3 -ip -fp-model precise -std=gnu99
  Using MPI
  Using ScaLAPACK
  Using LibXC
  Using i-PI
  Using RLSY
  Linking against: /mpcdf/soft/SLE_12/packages/x86_64/intel_parallel_studio/2020.1/mkl/lib/intel64/libmkl_intel_lp64.so
                   /mpcdf/soft/SLE_12/packages/x86_64/intel_parallel_studio/2020.1/mkl/lib/intel64/libmkl_sequential.so
                   /mpcdf/soft/SLE_12/packages/x86_64/intel_parallel_studio/2020.1/mkl/lib/intel64/libmkl_core.so
                   /mpcdf/soft/SLE_12/packages/x86_64/intel_parallel_studio/2020.1/mkl/lib/intel64/libmkl_blacs_intelmpi_lp64.so
                   /mpcdf/soft/SLE_12/packages/x86_64/intel_parallel_studio/2020.1/mkl/lib/intel64/libmkl_scalapack_lp64.so

  Using       40 parallel tasks.
  Task        0 on host co2212 reporting.
  Task        1 on host co2212 reporting.
  Task        2 on host co2212 reporting.
  Task        3 on host co2212 reporting.
  Task        4 on host co2212 reporting.
  Task        5 on host co2212 reporting.
  Task        6 on host co2212 reporting.
  Task        7 on host co2212 reporting.
  Task        8 on host co2212 reporting.
  Task        9 on host co2212 reporting.
  Task       10 on host co2212 reporting.
  Task       11 on host co2212 reporting.
  Task       12 on host co2212 reporting.
  Task       13 on host co2212 reporting.
  Task       14 on host co2212 reporting.
  Task       15 on host co2212 reporting.
  Task       16 on host co2212 reporting.
  Task       17 on host co2212 reporting.
  Task       18 on host co2212 reporting.
  Task       19 on host co2212 reporting.
  Task       20 on host co2212 reporting.
  Task       21 on host co2212 reporting.
  Task       22 on host co2212 reporting.
  Task       23 on host co2212 reporting.
  Task       24 on host co2212 reporting.
  Task       25 on host co2212 reporting.
  Task       26 on host co2212 reporting.
  Task       27 on host co2212 reporting.
  Task       28 on host co2212 reporting.
  Task       29 on host co2212 reporting.
  Task       30 on host co2212 reporting.
  Task       31 on host co2212 reporting.
  Task       32 on host co2212 reporting.
  Task       33 on host co2212 reporting.
  Task       34 on host co2212 reporting.
  Task       35 on host co2212 reporting.
  Task       36 on host co2212 reporting.
  Task       37 on host co2212 reporting.
  Task       38 on host co2212 reporting.
  Task       39 on host co2212 reporting.

  Performing system and environment tests:
  | Environment variable OMP_NUM_THREADS correctly set to 1.
  | Checking for ScaLAPACK...
  | Testing pdtran()...
  | All pdtran() tests passed.

  Obtaining array dimensions for all initial allocations:
  
  -----------------------------------------------------------------------
  Parsing control.in (first pass over file, find array dimensions only).
  The contents of control.in will be repeated verbatim below
  unless switched off by setting 'verbatim_writeout .false.' .
  in the first line of control.in .
  -----------------------------------------------------------------------
  
  #Physical settings
    xc            pw-lda
    spin          none
    relativistic  atomic_zora scalar
    vdw_correction_hirshfeld
  
  ################################################################################
  #
  #  FHI-aims code project
  #  VB, Fritz-Haber Institut, 2009
  #
  #  Suggested "light" defaults for C atom (to be pasted into control.in file)
  #  Be sure to double-check any results obtained with these settings for post-processing,
  #  e.g., with the "tight" defaults and larger basis sets.
  #
  ################################################################################
    species        C
  #     global species definitions
      nucleus             6
      mass                12.0107
  #
      l_hartree           4
  #
      cut_pot             3.5  1.5  1.0
      basis_dep_cutoff    1e-4
  #
      radial_base         34 5.0
      radial_multiplier   1
      angular_grids specified
        division   0.3326   50
        division   0.5710  110
        division   0.7727  194
        division   0.8772  302
  #      division   0.9334  434
  #      division   0.9625  590
  #      division   0.9924  770
  #      division   1.0230  974
  #      division   1.4589 1202
  #     outer_grid  974
       outer_grid 302
  ################################################################################
  #
  #  Definition of "minimal" basis
  #
  ################################################################################
  #     valence basis states
      valence      2  s   2.
      valence      2  p   2.
  #     ion occupancy
      ion_occ      2  s   1.
      ion_occ      2  p   1.
  ################################################################################
  #
  #  Suggested additional basis functions. For production calculations,
  #  uncomment them one after another (the most important basis functions are
  #  listed first).
  #
  #  Constructed for dimers: 1.0 A, 1.25 A, 1.5 A, 2.0 A, 3.0 A
  #
  ################################################################################
  #  "First tier" - improvements: -1214.57 meV to -155.61 meV
       hydro 2 p 1.7
       hydro 3 d 6
       hydro 2 s 4.9
  #  "Second tier" - improvements: -67.75 meV to -5.23 meV
  #     hydro 4 f 9.8
  #     hydro 3 p 5.2
  #     hydro 3 s 4.3
  #     hydro 5 g 14.4
  #     hydro 3 d 6.2
  #  "Third tier" - improvements: -2.43 meV to -0.60 meV
  #     hydro 2 p 5.6
  #     hydro 2 s 1.4
  #     hydro 3 d 4.9
  #     hydro 4 f 11.2
  #  "Fourth tier" - improvements: -0.39 meV to -0.18 meV
  #     hydro 2 p 2.1
  #     hydro 5 g 16.4
  #     hydro 4 d 13.2
  #     hydro 3 s 13.6
  #     hydro 4 f 17.6
  #  Further basis functions - improvements: -0.08 meV and below
  #     hydro 3 s 2
  #     hydro 3 p 6
  #     hydro 4 d 20
  ################################################################################
  ################################################################################
  #
  #  FHI-aims code project
  #  VB, Fritz-Haber Institut, 2009
  #
  #  Suggested "light" defaults for H atom (to be pasted into control.in file)
  #  Be sure to double-check any results obtained with these settings for post-processing,
  #  e.g., with the "tight" defaults and larger basis sets.
  #
  ################################################################################
    species        H
  #     global species definitions
      nucleus             1
      mass                1.00794
  #
      l_hartree           4
  #
      cut_pot             3.5  1.5  1.0
      basis_dep_cutoff    1e-4
  #
      radial_base         24 5.0
      radial_multiplier   1
      angular_grids       specified
        division   0.2421   50
        division   0.3822  110
        division   0.4799  194
        division   0.5341  302
  #      division   0.5626  434
  #      division   0.5922  590
  #      division   0.6542  770
  #      division   0.6868 1202
  #      outer_grid  770
        outer_grid  302
  ################################################################################
  #
  #  Definition of "minimal" basis
  #
  ################################################################################
  #     valence basis states
      valence      1  s   1.
  #     ion occupancy
      ion_occ      1  s   0.5
  ################################################################################
  #
  #  Suggested additional basis functions. For production calculations,
  #  uncomment them one after another (the most important basis functions are
  #  listed first).
  #
  #  Basis constructed for dimers: 0.5 A, 0.7 A, 1.0 A, 1.5 A, 2.5 A
  #
  ################################################################################
  #  "First tier" - improvements: -1014.90 meV to -62.69 meV
       hydro 2 s 2.1
       hydro 2 p 3.5
  #  "Second tier" - improvements: -12.89 meV to -1.83 meV
  #     hydro 1 s 0.85
  #     hydro 2 p 3.7
  #     hydro 2 s 1.2
  #     hydro 3 d 7
  #  "Third tier" - improvements: -0.25 meV to -0.12 meV
  #     hydro 4 f 11.2
  #     hydro 3 p 4.8
  #     hydro 4 d 9
  #     hydro 3 s 3.2
  
  
  ################################################################################
  #
  #  FHI-aims code project
  #  VB, Fritz-Haber Institut, 2009
  #
  #  Suggested "light" defaults for Ag atom (to be pasted into control.in file)
  #  Be sure to double-check any results obtained with these settings for post-processing,
  #  e.g., with the "tight" defaults and larger basis sets.
  #
  ################################################################################
    species        Ag
  #     global species definitions
    # hirshfeld_param     122 15.4 2.57
  
      nucleus             47
      mass                107.8682
  #
      l_hartree           6
  #
      cut_pot             3.5  1.5  1.0
      basis_dep_cutoff    1e-4
  #
      radial_base         62 5.0
      radial_multiplier   1
      angular_grids specified
        division   0.5617   50
        division   0.9788  110
        division   1.2700  194
        division   1.5678  302
  #      division   2.1195  434
  #      division   2.1949  590
  #      division   2.2741  770
  #      division   2.8497 1202
  #      outer_grid  974
        outer_grid  302
  ################################################################################
  #
  #  Definition of "minimal" basis
  #
  ################################################################################
  #     valence basis states
      valence      5  s   1.
      valence      4  p   6.
      valence      4  d  10.
  #     ion occupancy
      ion_occ     5  s   0.
      ion_occ     4  p   6.
      ion_occ     4  d   9.
  ################################################################################
  #
  #  Suggested additional basis functions. For production calculations,
  #  uncomment them one after another (the most important basis functions are
  #  listed first).
  #
  #  Constructed for dimers: 2.1 A, 2.45 A, 3.00 A, 4.00 A
  #
  ################################################################################
  #  "First tier" - max. impr. -144.99  meV, min. impr. -3.42 meV
       ionic 5 p auto
       hydro 4 f 7.6
       hydro 3 s 2.6
  #     hydro 5 g 9.8
       hydro 4 d 8.4
  #  "Second tier" - max. impr. -3.10  meV, min. impr. -0.64 meV
  #     hydro 5 f 16.8
  #     hydro 6 h 13.2
  #     hydro 4 p 5
  #     hydro 4 d 4.3
  #     hydro 5 s 17.2
  #  "Third tier" - max. impr. -0.48  meV, min. impr. -0.12 meV
  #     hydro 4 f 19.2
  #     hydro 5 f 8.4
  #     hydro 6 p 12
  #     hydro 5 g 12.8
  #     hydro 5 d 8.4
  #     hydro 5 s 5.8
  #     hydro 6 h 15.2
  
  
  
  compute_forces .true.
  final_forces_cleaned .true.
  DFPT polarizability
  
  -----------------------------------------------------------------------
  Completed first pass over input file control.in .
  -----------------------------------------------------------------------
  
  
  -----------------------------------------------------------------------
  Parsing geometry.in (first pass over file, find array dimensions only).
  The contents of geometry.in will be repeated verbatim below
  unless switched off by setting 'verbatim_writeout .false.' .
  in the first line of geometry.in .
  -----------------------------------------------------------------------
  
  #
  # temporary structure-file for finite-difference calculation of forces
  # displacement   0.0025 of \# atom    11 direction     2
  #
  atom   -0.00023400   -0.27359764   -4.54653000   C
  atom    1.20114016   -0.96717833   -4.54653000   C
  atom    1.20114016   -2.35438967   -4.54653000   C
  atom   -0.00023400   -3.04797036   -4.54653000   C
  atom   -1.20160816   -2.35438967   -4.54653000   C
  atom   -1.20160816   -0.96717833   -4.54653000   C
  atom   -0.00023400    0.82013270   -4.54653000   H
  atom    2.14833467   -0.42030956   -4.54653000   H
  atom    2.14833467   -2.90125844   -4.54653000   H
  atom   -0.00023400   -4.14170070   -4.54653000   H
  atom   -2.14880267   -2.90125844   -4.54653000   H
  atom   -2.14880267   -0.42030956   -4.54403000   H
  
  -----------------------------------------------------------------------
  Completed first pass over input file geometry.in .
  -----------------------------------------------------------------------
  

  Basic array size parameters:
  | Number of species                 :        3
  | Number of atoms                   :       12
  | Max. basis fn. angular momentum   :        3
  | Max. atomic/ionic basis occupied n:        5
  | Max. number of basis fn. types    :        3
  | Max. radial fns per species/type  :       10
  | Max. logarithmic grid size        :     1446
  | Max. radial integration grid size :       62
  | Max. angular integration grid size:      302
  | Max. angular grid division number :        8
  | Radial grid for Hartree potential :     1446
  | Number of spin channels           :        1

------------------------------------------------------------
          Reading file control.in.
------------------------------------------------------------
  XC: Using Perdew-Wang parametrisation of Ceperley-Alder LDA.
  Spin treatment: No spin polarisation.
  Scalar relativistic treatment of kinetic energy: on-site free-atom approximation to ZORA.
 
  Reading configuration options for species C                   .
  | Found nuclear charge :   6.0000
  | Found atomic mass :    12.0107000000000      amu
  | Found l_max for Hartree potential  :   4
  | Found cutoff potl. onset [A], width [A], scale factor :    3.50000    1.50000    1.00000
  | Threshold for basis-dependent cutoff potential is   0.100000E-03
  | Found data for basic radial integration grid :    34 points, outermost radius =    5.000 A
  | Found multiplier for basic radial grid :   1
  | Found angular grid specification: user-specified.
  | Specified grid contains     5 separate shells.
  | Check grid settings after all constraints further below.
  | Found free-atom valence shell :  2 s   2.000
  | Found free-atom valence shell :  2 p   2.000
  | Found free-ion valence shell :  2 s   1.000
  | Found free-ion valence shell :  2 p   1.000
  | Found hydrogenic basis function :  2 p   1.700
  | Found hydrogenic basis function :  3 d   6.000
  | Found hydrogenic basis function :  2 s   4.900
  Species C                   : Missing cutoff potential type.
  Defaulting to exp(1/x)/(1-x)^2 type cutoff potential.
  Species C : No 'logarithmic' tag. Using default grid for free atom:
  | Default logarithmic grid data [bohr] : 0.1000E-03 0.1000E+03 0.1012E+01
  Species C : On-site basis accuracy parameter (for Gram-Schmidt orthonormalisation) not specified.
  Using default value basis_acc =  0.1000000E-03.
  Species C                   : Using default innermost maximum threshold i_radial=  2 for radial functions.
  Species C                   : Default cutoff onset for free atom density etc. : 0.35000000E+01 AA.
  Species C                   : Basic radial grid will be enhanced according to radial_multiplier =   1, to contain    34 grid points.
 
  Reading configuration options for species H                   .
  | Found nuclear charge :   1.0000
  | Found atomic mass :    1.00794000000000      amu
  | Found l_max for Hartree potential  :   4
  | Found cutoff potl. onset [A], width [A], scale factor :    3.50000    1.50000    1.00000
  | Threshold for basis-dependent cutoff potential is   0.100000E-03
  | Found data for basic radial integration grid :    24 points, outermost radius =    5.000 A
  | Found multiplier for basic radial grid :   1
  | Found angular grid specification: user-specified.
  | Specified grid contains     5 separate shells.
  | Check grid settings after all constraints further below.
  | Found free-atom valence shell :  1 s   1.000
  | Found free-ion valence shell :  1 s   0.500
  | Found hydrogenic basis function :  2 s   2.100
  | Found hydrogenic basis function :  2 p   3.500
  Species H                   : Missing cutoff potential type.
  Defaulting to exp(1/x)/(1-x)^2 type cutoff potential.
  Species H : No 'logarithmic' tag. Using default grid for free atom:
  | Default logarithmic grid data [bohr] : 0.1000E-03 0.1000E+03 0.1012E+01
  Species H : On-site basis accuracy parameter (for Gram-Schmidt orthonormalisation) not specified.
  Using default value basis_acc =  0.1000000E-03.
  Species H                   : Using default innermost maximum threshold i_radial=  2 for radial functions.
  Species H                   : Default cutoff onset for free atom density etc. : 0.35000000E+01 AA.
  Species H                   : Basic radial grid will be enhanced according to radial_multiplier =   1, to contain    24 grid points.
 
  Reading configuration options for species Ag                  .
  | Found nuclear charge :  47.0000
  | Found atomic mass :    107.868200000000      amu
  | Found l_max for Hartree potential  :   6
  | Found cutoff potl. onset [A], width [A], scale factor :    3.50000    1.50000    1.00000
  | Threshold for basis-dependent cutoff potential is   0.100000E-03
  | Found data for basic radial integration grid :    62 points, outermost radius =    5.000 A
  | Found multiplier for basic radial grid :   1
  | Found angular grid specification: user-specified.
  | Specified grid contains     5 separate shells.
  | Check grid settings after all constraints further below.
  | Found free-atom valence shell :  5 s   1.000
  | Found free-atom valence shell :  4 p   6.000
  | Found free-atom valence shell :  4 d  10.000
  | Found free-ion valence shell :  5 s   0.000
  | Found free-ion valence shell :  4 p   6.000
  | Found free-ion valence shell :  4 d   9.000
  | Found ionic basis function :  5 p , default cutoff radius.
  | Found hydrogenic basis function :  4 f   7.600
  | Found hydrogenic basis function :  3 s   2.600
  | Found hydrogenic basis function :  4 d   8.400
  Species Ag                  : Missing cutoff potential type.
  Defaulting to exp(1/x)/(1-x)^2 type cutoff potential.
  Species Ag: No 'logarithmic' tag. Using default grid for free atom:
  | Default logarithmic grid data [bohr] : 0.1000E-03 0.1000E+03 0.1012E+01
  | Will include ionic basis functions of  2.0-fold positive Ag                   ion.
  Species Ag: On-site basis accuracy parameter (for Gram-Schmidt orthonormalisation) not specified.
  Using default value basis_acc =  0.1000000E-03.
  Species Ag                  : Using default innermost maximum threshold i_radial=  2 for radial functions.
  Species Ag                  : Default cutoff onset for free atom density etc. : 0.35000000E+01 AA.
  Species Ag                  : Basic radial grid will be enhanced according to radial_multiplier =   1, to contain    62 grid points.
  Forces will be computed.
  Cleaning forces before final output.
  DFPT calculation will begin after the DFT/HF calculation.
 
  Finished reading input file 'control.in'.
 
------------------------------------------------------------


------------------------------------------------------------
          Reading geometry description geometry.in.
------------------------------------------------------------
  | The smallest distance between any two atoms is         1.09372889 AA.
  | The first atom of this pair is atom number                      5 .
  | The second atom of this pair is atom number                    11 .
  Input structure read successfully.
  The structure contains       12 atoms,  and a total of         42.000 electrons.

  Input geometry:
  | No unit cell requested.
  | Atomic structure:
  |       Atom                x [A]            y [A]            z [A]
  |    1: Species C            -0.00023400       -0.27359764       -4.54653000
  |    2: Species C             1.20114016       -0.96717833       -4.54653000
  |    3: Species C             1.20114016       -2.35438967       -4.54653000
  |    4: Species C            -0.00023400       -3.04797036       -4.54653000
  |    5: Species C            -1.20160816       -2.35438967       -4.54653000
  |    6: Species C            -1.20160816       -0.96717833       -4.54653000
  |    7: Species H            -0.00023400        0.82013270       -4.54653000
  |    8: Species H             2.14833467       -0.42030956       -4.54653000
  |    9: Species H             2.14833467       -2.90125844       -4.54653000
  |   10: Species H            -0.00023400       -4.14170070       -4.54653000
  |   11: Species H            -2.14880267       -2.90125844       -4.54653000
  |   12: Species H            -2.14880267       -0.42030956       -4.54403000

 
  Finished reading input file 'control.in'.
 

------------------------------------------------------------
          Reading geometry description geometry.in.
------------------------------------------------------------
 
  Consistency checks for stacksize environment parameter are next.
 
  | Maximum stacksize for task 0: unlimited
  | Maximum stacksize for task 1: unlimited
  | Maximum stacksize for task 2: unlimited
  | Maximum stacksize for task 3: unlimited
  | Maximum stacksize for task 4: unlimited
  | Maximum stacksize for task 5: unlimited
  | Maximum stacksize for task 6: unlimited
  | Maximum stacksize for task 7: unlimited
  | Maximum stacksize for task 8: unlimited
  | Maximum stacksize for task 9: unlimited
  | Maximum stacksize for task 10: unlimited
  | Maximum stacksize for task 11: unlimited
  | Maximum stacksize for task 12: unlimited
  | Maximum stacksize for task 13: unlimited
  | Maximum stacksize for task 14: unlimited
  | Maximum stacksize for task 15: unlimited
  | Maximum stacksize for task 16: unlimited
  | Maximum stacksize for task 17: unlimited
  | Maximum stacksize for task 18: unlimited
  | Maximum stacksize for task 19: unlimited
  | Maximum stacksize for task 20: unlimited
  | Maximum stacksize for task 21: unlimited
  | Maximum stacksize for task 22: unlimited
  | Maximum stacksize for task 23: unlimited
  | Maximum stacksize for task 24: unlimited
  | Maximum stacksize for task 25: unlimited
  | Maximum stacksize for task 26: unlimited
  | Maximum stacksize for task 27: unlimited
  | Maximum stacksize for task 28: unlimited
  | Maximum stacksize for task 29: unlimited
  | Maximum stacksize for task 30: unlimited
  | Maximum stacksize for task 31: unlimited
  | Maximum stacksize for task 32: unlimited
  | Maximum stacksize for task 33: unlimited
  | Maximum stacksize for task 34: unlimited
  | Maximum stacksize for task 35: unlimited
  | Maximum stacksize for task 36: unlimited
  | Maximum stacksize for task 37: unlimited
  | Maximum stacksize for task 38: unlimited
  | Maximum stacksize for task 39: unlimited
  | Current stacksize for task 0: unlimited
  | Current stacksize for task 1: unlimited
  | Current stacksize for task 2: unlimited
  | Current stacksize for task 3: unlimited
  | Current stacksize for task 4: unlimited
  | Current stacksize for task 5: unlimited
  | Current stacksize for task 6: unlimited
  | Current stacksize for task 7: unlimited
  | Current stacksize for task 8: unlimited
  | Current stacksize for task 9: unlimited
  | Current stacksize for task 10: unlimited
  | Current stacksize for task 11: unlimited
  | Current stacksize for task 12: unlimited
  | Current stacksize for task 13: unlimited
  | Current stacksize for task 14: unlimited
  | Current stacksize for task 15: unlimited
  | Current stacksize for task 16: unlimited
  | Current stacksize for task 17: unlimited
  | Current stacksize for task 18: unlimited
  | Current stacksize for task 19: unlimited
  | Current stacksize for task 20: unlimited
  | Current stacksize for task 21: unlimited
  | Current stacksize for task 22: unlimited
  | Current stacksize for task 23: unlimited
  | Current stacksize for task 24: unlimited
  | Current stacksize for task 25: unlimited
  | Current stacksize for task 26: unlimited
  | Current stacksize for task 27: unlimited
  | Current stacksize for task 28: unlimited
  | Current stacksize for task 29: unlimited
  | Current stacksize for task 30: unlimited
  | Current stacksize for task 31: unlimited
  | Current stacksize for task 32: unlimited
  | Current stacksize for task 33: unlimited
  | Current stacksize for task 34: unlimited
  | Current stacksize for task 35: unlimited
  | Current stacksize for task 36: unlimited
  | Current stacksize for task 37: unlimited
  | Current stacksize for task 38: unlimited
  | Current stacksize for task 39: unlimited
 
  Consistency checks for the contents of control.in are next.
 
  MPI_IN_PLACE appears to work with this MPI implementation.
  | Keeping use_mpi_in_place .true. (see manual).
  Target number of points in a grid batch is not set. Defaulting to  100
  Method for grid partitioning is not set. Defaulting to parallel hash+maxmin partitioning.
  Batch size limit is not set. Defaulting to    200
  By default, will store active basis functions for each batch.
  If in need of memory, prune_basis_once .false. can be used to disable this option.
  communication_type for Hartree potential was not specified.
  Defaulting to calc_hartree .
  Defaulting to Pulay charge density mixer.
  Pulay mixer: Number of relevant iterations not set.
  Defaulting to    8 iterations.
  Pulay mixer: Number of initial linear mixing iterations not set.
  Defaulting to    0 iterations.
  Work space size for distributed Hartree potential not set.
  Defaulting to   0.200000E+03 MB.
  Mixing parameter for charge density mixing has not been set.
  Using default: charge_mix_param =     0.0500.
  The mixing parameter will be adjusted in iteration number     2 of the first full s.c.f. cycle only.
  Algorithm-dependent basis array size parameters:
  | n_max_pulay                         :        8
  Maximum number of self-consistency iterations not provided.
  Presetting  1000 iterations.
  Presetting      1001 iterations before the initial mixing cycle
  is restarted anyway using the sc_init_iter criterion / keyword.
  Presetting a factor      1.000 between actual scf density residual
  and density convergence criterion sc_accuracy_rho below which sc_init_iter
  takes no effect.
 * No s.c.f. convergence criteria (sc_accuracy_*) were provided in control.in.
 * The run will proceed with a reasonable default guess, but please check whether.
 * the s.c.f. cycles seem to take too much or too little time.
  Geometry relaxation not requested: no relaxation will be performed.
  Forces evaluation will include force correction term due to incomplete self-consistency (default).
 * Notice: The s.c.f. convergence criterion sc_accuracy_rho was not provided.
 * We used to stop in this case, and ask the user to provide reasonable
 * scf convergence criteria. However, this led some users to employ criteria
 * that led to extremely long run times, e.g., for simple relaxation.
 * We now preset a default value for sc_accuracy_rho if it is not set.
 * You may still wish to check if this setting is too tight or too loose for your needs.
 * Based on n_atoms and forces and force-correction status, FHI-aims chose sc_accuracy_rho =  0.113137E-04 .
  Force calculation: scf convergence accuracy of forces not set.
  Defaulting to 'sc_accuracy_forces not_checked'.
  Handling of forces: Unphysical translation and rotation will be removed from forces.
  No accuracy limit for integral partition fn. given. Defaulting to  0.1000E-14.
  No threshold value for u(r) in integrations given. Defaulting to  0.1000E-05.
  No occupation type (smearing scheme) given. Defaulting to Gaussian broadening, width =  0.1000E-01 eV.
  The width will be adjusted in iteration number     2 of the first full s.c.f. cycle only.
  S.C.F. convergence parameters will be adjusted in iteration number     2 of the first full s.c.f. cycle only.
  No accuracy for occupation numbers given. Defaulting to  0.1000E-12.
  No threshold value for occupation numbers given. Defaulting to  0.0000E+00.
  No accuracy for fermi level given. Defaulting to  0.1000E-19.
  Maximum # of iterations to find E_F not set. Defaulting to  200.
  Preferred method for the eigenvalue solver ('KS_method') not specified in 'control.in'.
  Calling BLACS routine to test compilation state
  Since ScaLAPACK support is enabled, defaulting to ELPA (via ELSI).
  Will not use alltoall communication since running on < 1024 CPUs.
  Threshold for basis singularities not set.
  Default threshold for basis singularities:  0.1000E-04
  partition_type (choice of integration weights) for integrals was not specified.
  | Using a version of the partition function of Stratmann and coworkers ('stratmann_sparse').
  | At each grid point, the set of atoms used to build the partition table is smoothly restricted to
  | only those atoms whose free-atom density would be non-zero at that grid point.
  Partitioning for Hartree potential was not defined. Using partition_type for integrals.
  | Adjusted default value of keyword multip_moments_threshold to:       0.10000000E-11
  | This value may affect high angular momentum components of the Hartree potential in periodic systems.
  No q(lm)/r^(l+1) cutoff set for long-range Hartree potential.
  | Using default value of  0.100000E-09 .
  | Verify using the multipole_threshold keyword.
  Defaulting to new monopole extrapolation.
  Density update method: automatic selection selected.
  WARNING: Switching off the compensation of charge integration errors
  on the 3D integration grid, since you have requested a DFPT calculation.
  This is unfortunately necessary since "compensate_multipole_errors" is
  not yet implemented for DFPT.
  Use the "compensate_multipole_errors" flag to overwrite this behaviour.
  Set 'collect_eigenvectors' to be '.true.' for use_density_matrix .false.
 
  Consistency checks for the contents of geometry.in are next.
 
  Number of empty states per atom not set in control.in .
  | Since you are using a method that relies on the unoccupied spectrum
  | (MP2,GW,RPA et al.), will use the full Hamiltonian size (see below)
  | as the max. possible number of states (occupied plus empty).

  Structure-dependent array size parameters: 
  | Maximum number of distinct radial functions  :       23
  | Maximum number of basis functions            :      114
  | Number of Kohn-Sham states (occupied + empty):      114
------------------------------------------------------------

------------------------------------------------------------
          Preparing all fixed parts of the calculation.
------------------------------------------------------------
  Determining machine precision:
    2.225073858507201E-308
  Setting up grids for atomic and cluster calculations.

  Creating wave function, potential, and density for free atoms.

  Species: C

  List of occupied orbitals and eigenvalues:
    n    l              occ      energy [Ha]    energy [eV]
    1    0           2.0000        -9.952440      -270.8197
    2    0           2.0000        -0.499232       -13.5848
    2    1           2.0000        -0.196847        -5.3565


  Species: H

  List of occupied orbitals and eigenvalues:
    n    l              occ      energy [Ha]    energy [eV]
    1    0           1.0000        -0.232378        -6.3233


  Species: Ag

  List of occupied orbitals and eigenvalues:
    n    l              occ      energy [Ha]    energy [eV]
    1    0           2.0000      -957.142604    -26045.1754
    2    0           2.0000      -137.629864     -3745.0992
    3    0           2.0000       -25.099958      -683.0046
    4    0           2.0000        -3.487154       -94.8903
    5    0           1.0000        -0.166341        -4.5264
    2    1           6.0000      -123.488145     -3360.2834
    3    1           6.0000       -20.483893      -557.3951
    4    1           6.0000        -2.148884       -58.4741
    3    2          10.0000       -13.192778      -358.9938
    4    2          10.0000        -0.275951        -7.5090


  Adding cutoff potential to free-atom effective potential.
  Creating fixed part of basis set: Ionic, confined, hydrogenic.
 
  C                    hydrogenic:
 
  List of hydrogenic basis orbitals: 
    n    l      effective z      eigenvalue [eV]  inner max. [A]     outer max. [A]     outer radius [A]   
    2    1         1.700000        -9.7616           1.230570           1.230570           4.607917
    3    2         6.000000       -54.4224           0.792453           0.792453           3.883070
    2    0         4.900000       -81.6679           0.082559           0.562749           3.078220
 
 
  H                    hydrogenic:
 
  List of hydrogenic basis orbitals: 
    n    l      effective z      eigenvalue [eV]  inner max. [A]     outer max. [A]     outer radius [A]   
    2    0         2.100000       -14.9728           0.193243           1.317208           4.583499
    2    1         3.500000       -41.6669           0.602369           0.602369           3.723403
 
 
  Ag                   ion:

  List of free ionic orbitals and eigenvalues:
    n    l      energy [Ha]    energy [eV]
    1    0      -958.009288    -26068.7591
    2    0      -138.477895     -3768.1752
    3    0       -25.944611      -705.9888
    4    0        -4.322659      -117.6255
    2    1      -124.335790     -3383.3490
    3    1       -21.328427      -580.3760
    4    1        -2.979395       -81.0735
    3    2       -14.037265      -381.9734
    4    2        -1.071315       -29.1520


  List of ionic basis orbitals and eigenvalues:
    n    l      energy [Ha]    energy [eV]    outer radius [A]
    5    1        -0.530848       -14.4451       4.586811

 
  Ag                   hydrogenic:
 
  List of hydrogenic basis orbitals: 
    n    l      effective z      eigenvalue [eV]  inner max. [A]     outer max. [A]     outer radius [A]   
    4    3         7.600000       -49.1160           1.110807           1.110807           4.421638
    3    0         2.600000        -9.1732           0.149597           2.489137           4.643229
    4    2         8.400000       -60.0006           0.428073           1.334373           4.367912
 
  Creating atomic-like basis functions for current effective potential.

  Species C                   :

  List of atomic basis orbitals and eigenvalues:
    n    l      energy [Ha]    energy [eV]    outer radius [A]
    1    0        -9.952440      -270.8197       1.934409
    2    0        -0.499232       -13.5848       4.496620
    2    1        -0.196847        -5.3565       4.551928


  Species H                   :

  List of atomic basis orbitals and eigenvalues:
    n    l      energy [Ha]    energy [eV]    outer radius [A]
    1    0        -0.232378        -6.3233       4.527807


  Species Ag                  :

  List of atomic basis orbitals and eigenvalues:
    n    l      energy [Ha]    energy [eV]    outer radius [A]
    1    0      -957.142604    -26045.1754       0.218529
    2    0      -137.629864     -3745.0992       0.595480
    3    0       -25.099958      -683.0046       1.384220
    4    0        -3.487154       -94.8903       3.462568
    5    0        -0.166341        -4.5264       4.586811
    2    1      -123.488145     -3360.2834       0.610219
    3    1       -20.483893      -557.3951       1.489569
    4    1        -2.148884       -58.4741       4.058994
    3    2       -13.192778      -358.9938       1.724930
    4    2        -0.275951        -7.5090       4.531079

  Assembling full basis from fixed parts.
  | Species C :   atomic orbital   1 s accepted.
  | Species C :    hydro orbital   2 s accepted.
  | Species C :   atomic orbital   2 s accepted.
  | Species C :   atomic orbital   2 p accepted.
  | Species C :    hydro orbital   2 p accepted.
  | Species C :    hydro orbital   3 d accepted.
  | Species H :   atomic orbital   1 s accepted.
  | Species H :    hydro orbital   2 s accepted.
  | Species H :    hydro orbital   2 p accepted.
  | Species Ag :   atomic orbital   1 s accepted.
  | Species Ag :   atomic orbital   2 s accepted.
  | Species Ag :   atomic orbital   3 s accepted.
  | Species Ag :   atomic orbital   4 s accepted.
  | Species Ag :   atomic orbital   5 s accepted.
  | Species Ag :    hydro orbital   3 s accepted.
  | Species Ag :   atomic orbital   2 p accepted.
  | Species Ag :   atomic orbital   3 p accepted.
  | Species Ag :   atomic orbital   4 p accepted.
  | Species Ag :    ionic orbital   5 p accepted.
  | Species Ag :   atomic orbital   3 d accepted.
  | Species Ag :    hydro orbital   4 d accepted.
  | Species Ag :   atomic orbital   4 d accepted.
  | Species Ag :    hydro orbital   4 f accepted.
 
  Basis size parameters after reduction:
  | Total number of radial functions:       23
  | Total number of basis functions :      114
 
  Per-task memory consumption for arrays in subroutine allocate_ext:
  |           8.519168MB.
  Testing on-site integration grid accuracy.
  |  Species  Function  <phi|h_atom|phi> (log., in eV)  <phi|h_atom|phi> (rad., in eV)
           1        1               -270.8196846608               -270.8196521136
           1        2                -10.5732782379                -10.5732587795
           1        3                 16.3341762879                 16.3303421581
           1        4                 -5.3580915186                 -5.3594941248
           1        5                  8.5322326461                  8.5082139888
           1        6                 27.4915615315                 27.4915696770
           2        7                 -6.3246251765                 -6.3233331181
           2        8                 14.1313906092                 14.1372326594
           2        9                 25.3615426212                 25.3616852158
           3       10             -26045.1754166020             -26045.1283337768 ***
           3       11              -3745.0991522527              -3745.0984357936
           3       12               -683.0046001409               -683.0045719798
           3       13                -94.8903018342                -94.8902994702
           3       14                 -4.5393920186                 -4.5500388404
           3       15                  6.3761442099                  6.2454543484 ***
           3       16              -3360.2833919951              -3360.2833898642
           3       17               -557.3951003218               -557.3950976601
           3       18                -58.4741016013                -58.4741005184
           3       19                  1.0420005936                  1.0366614909
           3       20               -358.9937617721               -358.9937609032
           3       21                 17.5754083405                 17.5754868900
           3       22                 -6.2857328967                 -6.2858902696
           3       23                 23.9298026147                 23.9298230637
 * Note: Onsite integrals marked "***" above are less accurate than
 * onsite_accuracy_threshold =    0.03000 eV. Usually, this is harmless.
 * However, one integral did have a negative value. This integral could be important.
 * When in doubt, tighten the "radial" and/or "radial_multiplier" flags to check.

  Preparing densities etc. for the partition functions (integrals / Hartree potential).

  Preparations completed.
  max(cpu_time)          :      0.326 s.
  Wall clock time (cpu1) :      0.338 s.
------------------------------------------------------------

------------------------------------------------------------
          Begin self-consistency loop: Initialization.

          Date     :  20210705, Time     :  094203.557
------------------------------------------------------------

  Initializing index lists of integration centers etc. from given atomic structure:
  | Number of centers in hartree potential         :        12
  | Number of centers in hartree multipole         :        12
  | Number of centers in electron density summation:        12
  | Number of centers in basis integrals           :        12
  | Number of centers in integrals                 :        12
  | Number of centers in hamiltonian               :        12
  * Using 40 tasks for Scalapack Eigenvalue solver.
  Detailed listing of tasks and assigned k-points:
  (for non-periodic systems, the "k-point" denotes an internal label only)
   Task     0 k-point     1 on co2212
   Task     1 k-point     1 on co2212
   Task     2 k-point     1 on co2212
   Task     3 k-point     1 on co2212
   Task     4 k-point     1 on co2212
   Task     5 k-point     1 on co2212
   Task     6 k-point     1 on co2212
   Task     7 k-point     1 on co2212
   Task     8 k-point     1 on co2212
   Task     9 k-point     1 on co2212
   Task    10 k-point     1 on co2212
   Task    11 k-point     1 on co2212
   Task    12 k-point     1 on co2212
   Task    13 k-point     1 on co2212
   Task    14 k-point     1 on co2212
   Task    15 k-point     1 on co2212
   Task    16 k-point     1 on co2212
   Task    17 k-point     1 on co2212
   Task    18 k-point     1 on co2212
   Task    19 k-point     1 on co2212
   Task    20 k-point     1 on co2212
   Task    21 k-point     1 on co2212
   Task    22 k-point     1 on co2212
   Task    23 k-point     1 on co2212
   Task    24 k-point     1 on co2212
   Task    25 k-point     1 on co2212
   Task    26 k-point     1 on co2212
   Task    27 k-point     1 on co2212
   Task    28 k-point     1 on co2212
   Task    29 k-point     1 on co2212
   Task    30 k-point     1 on co2212
   Task    31 k-point     1 on co2212
   Task    32 k-point     1 on co2212
   Task    33 k-point     1 on co2212
   Task    34 k-point     1 on co2212
   Task    35 k-point     1 on co2212
   Task    36 k-point     1 on co2212
   Task    37 k-point     1 on co2212
   Task    38 k-point     1 on co2212
   Task    39 k-point     1 on co2212
  Tasks:    40 split into      8 X      5 BLACS grid
  Calculating block size based on n_basis =          114  max_nprow =            8  max_npcol =            5
  ScaLAPACK block size set to:            8
  Allocating        0.003 MB for ovlp
  Allocating        0.003 MB for ham
  Allocating        0.003 MB for eigenvec
  Required Scalapack workspace - INTEGER:            1  REAL:             1
  Partitioning the integration grid into batches with parallel hashing+maxmin method.
  | Number of batches:      713
  | Maximal batch size:     183
  | Minimal batch size:      24
  | Average batch size:      88.325
  | Standard deviation of batch sizes:      17.739

  Integration load balanced across    40 MPI tasks.
  Work distribution over tasks is as follows:
  Task     0 has       1573 integration points.
  Task     1 has       1607 integration points.
  Task     2 has       1570 integration points.
  Task     3 has       1571 integration points.
  Task     4 has       1563 integration points.
  Task     5 has       1622 integration points.
  Task     6 has       1553 integration points.
  Task     7 has       1635 integration points.
  Task     8 has       1551 integration points.
  Task     9 has       1579 integration points.
  Task    10 has       1550 integration points.
  Task    11 has       1552 integration points.
  Task    12 has       1556 integration points.
  Task    13 has       1572 integration points.
  Task    14 has       1576 integration points.
  Task    15 has       1585 integration points.
  Task    16 has       1555 integration points.
  Task    17 has       1552 integration points.
  Task    18 has       1570 integration points.
  Task    19 has       1575 integration points.
  Task    20 has       1623 integration points.
  Task    21 has       1570 integration points.
  Task    22 has       1568 integration points.
  Task    23 has       1555 integration points.
  Task    24 has       1562 integration points.
  Task    25 has       1567 integration points.
  Task    26 has       1618 integration points.
  Task    27 has       1565 integration points.
  Task    28 has       1634 integration points.
  Task    29 has       1575 integration points.
  Task    30 has       1575 integration points.
  Task    31 has       1566 integration points.
  Task    32 has       1558 integration points.
  Task    33 has       1561 integration points.
  Task    34 has       1565 integration points.
  Task    35 has       1573 integration points.
  Task    36 has       1570 integration points.
  Task    37 has       1561 integration points.
  Task    38 has       1575 integration points.
  Task    39 has       1568 integration points.
  Initializing partition tables, free-atom densities, potentials, etc. across the integration grid (initialize_grid_storage).
  | initialize_grid_storage: Actual outermost partition radius vs. multipole_radius_free
  | (-- VB: in principle, multipole_radius_free should be larger, hence this output)
  | Species        1: Confinement radius =              4.999999999999999 AA, multipole_radius_free =              5.019602836301480 AA.
  | Species        1: outer_partition_radius set to              5.019602836301480 AA .
  | Species        2: Confinement radius =              4.999999999999999 AA, multipole_radius_free =              5.054417573612229 AA.
  | Species        2: outer_partition_radius set to              5.054417573612229 AA .
  | Species        3: Confinement radius =              4.999999999999999 AA, multipole_radius_free =              5.058069901110960 AA.
  | Species        3: outer_partition_radius set to              5.058069901110960 AA .
  | The sparse table of interatomic distances needs          1.64 kbyte instead of         1.15 kbyte of memory.
  | Using the partition_type stratmann_smoother will reduce your memory usage.
  | Net number of integration points:    62976
  | of which are non-zero points    :    54574
  Renormalizing the initial density to the exact electron count on the 3D integration grid.
  | Initial density: Formal number of electrons (from input files) :      42.0000000000
  | Integrated number of electrons on 3D grid     :      41.9999688408
  | Charge integration error                      :      -0.0000311592
  | Normalization factor for density and gradient :       1.0000007419
  Obtaining max. number of non-zero basis functions in each batch (get_n_compute_maxes).
  | Maximal number of non-zero basis functions:      114 in task     0
  | Maximal number of non-zero basis functions:      114 in task     1
  | Maximal number of non-zero basis functions:      113 in task     2
  | Maximal number of non-zero basis functions:      113 in task     3
  | Maximal number of non-zero basis functions:      114 in task     4
  | Maximal number of non-zero basis functions:      114 in task     5
  | Maximal number of non-zero basis functions:      112 in task     6
  | Maximal number of non-zero basis functions:      114 in task     7
  | Maximal number of non-zero basis functions:      114 in task     8
  | Maximal number of non-zero basis functions:      114 in task     9
  | Maximal number of non-zero basis functions:      113 in task    10
  | Maximal number of non-zero basis functions:      114 in task    11
  | Maximal number of non-zero basis functions:      114 in task    12
  | Maximal number of non-zero basis functions:      114 in task    13
  | Maximal number of non-zero basis functions:      114 in task    14
  | Maximal number of non-zero basis functions:      114 in task    15
  | Maximal number of non-zero basis functions:      114 in task    16
  | Maximal number of non-zero basis functions:      114 in task    17
  | Maximal number of non-zero basis functions:      113 in task    18
  | Maximal number of non-zero basis functions:      114 in task    19
  | Maximal number of non-zero basis functions:      114 in task    20
  | Maximal number of non-zero basis functions:      114 in task    21
  | Maximal number of non-zero basis functions:      114 in task    22
  | Maximal number of non-zero basis functions:      114 in task    23
  | Maximal number of non-zero basis functions:      113 in task    24
  | Maximal number of non-zero basis functions:      114 in task    25
  | Maximal number of non-zero basis functions:      114 in task    26
  | Maximal number of non-zero basis functions:      114 in task    27
  | Maximal number of non-zero basis functions:      114 in task    28
  | Maximal number of non-zero basis functions:      114 in task    29
  | Maximal number of non-zero basis functions:      114 in task    30
  | Maximal number of non-zero basis functions:      114 in task    31
  | Maximal number of non-zero basis functions:      114 in task    32
  | Maximal number of non-zero basis functions:      114 in task    33
  | Maximal number of non-zero basis functions:      114 in task    34
  | Maximal number of non-zero basis functions:      114 in task    35
  | Maximal number of non-zero basis functions:      114 in task    36
  | Maximal number of non-zero basis functions:      114 in task    37
  | Maximal number of non-zero basis functions:      114 in task    38
  | Maximal number of non-zero basis functions:      114 in task    39
  Selecting the method for density update.
  Loop over occupied states selected for charge density update.
  Allocating        0.099 MB for KS_eigenvector
  Integrating Hamiltonian matrix: batch-based integration.
  Time summed over all CPUs for integration: real work        0.297 s, elapsed        0.331 s
  Integrating overlap matrix.
  Time summed over all CPUs for integration: real work        0.189 s, elapsed        0.223 s
  Deallocating overlap matrix.

  Updating Kohn-Sham eigenvalues and eigenvectors using ELSI and the ELPA eigensolver.
  Overlap matrix is not singular
  | Lowest and highest eigenvalues :  0.1146E-02,  0.5833E+01
  Finished singularity check of overlap matrix
  | Time :     0.005 s
  Starting ELPA eigensolver
  Finished Cholesky decomposition
  | Time :     0.002 s
  Finished transformation to standard eigenproblem
  | Time :     0.002 s
  Finished solving standard eigenproblem
  | Time :     0.004 s
  Finished back-transformation of eigenvectors
  | Time :     0.000 s

  Obtaining occupation numbers and chemical potential using ELSI.
  | Chemical potential (Fermi level):    -7.67560496 eV
  Writing Kohn-Sham eigenvalues.

  State    Occupation    Eigenvalue [Ha]    Eigenvalue [eV]
      1       2.00000         -10.075578         -274.17044
      2       2.00000         -10.075350         -274.16423
      3       2.00000         -10.075350         -274.16422
      4       2.00000         -10.074894         -274.15181
      5       2.00000         -10.074894         -274.15180
      6       2.00000         -10.074666         -274.14560
      7       2.00000          -0.993755          -27.04146
      8       2.00000          -0.884329          -24.06382
      9       2.00000          -0.884324          -24.06369
     10       2.00000          -0.747015          -20.32731
     11       2.00000          -0.747013          -20.32725
     12       2.00000          -0.660239          -17.96602
     13       2.00000          -0.633549          -17.23974
     14       2.00000          -0.578064          -15.72992
     15       2.00000          -0.568466          -15.46874
     16       2.00000          -0.568459          -15.46856
     17       2.00000          -0.508324          -13.83219
     18       2.00000          -0.498983          -13.57803
     19       2.00000          -0.498975          -13.57780
     20       2.00000          -0.408290          -11.11014
     21       2.00000          -0.408288          -11.11007
     22       0.00000          -0.214999           -5.85042
     23       0.00000          -0.214995           -5.85032
     24       0.00000          -0.072098           -1.96187
     25       0.00000          -0.060998           -1.65985
     26       0.00000          -0.013963           -0.37996
     27       0.00000          -0.013958           -0.37981
     28       0.00000           0.019658            0.53491
     29       0.00000           0.019659            0.53494
     30       0.00000           0.059031            1.60632
     31       0.00000           0.105202            2.86270
     32       0.00000           0.105219            2.86316
     33       0.00000           0.107830            2.93420
     34       0.00000           0.107857            2.93493
     35       0.00000           0.165142            4.49373
     36       0.00000           0.191290            5.20526
     37       0.00000           0.195765            5.32703
     38       0.00000           0.243075            6.61441
     39       0.00000           0.243083            6.61463
     40       0.00000           0.262336            7.13853
     41       0.00000           0.262340            7.13863
     42       0.00000           0.268721            7.31226
     43       0.00000           0.282644            7.69115
     44       0.00000           0.282743            7.69383
     45       0.00000           0.333350            9.07092
     46       0.00000           0.340868            9.27548
     47       0.00000           0.423033           11.51132
     48       0.00000           0.423124           11.51378
     49       0.00000           0.456209           12.41409
     50       0.00000           0.631671           17.18863
     51       0.00000           0.632136           17.20130
     52       0.00000           0.633788           17.24625
     53       0.00000           0.633814           17.24696
     54       0.00000           0.719326           19.57385
     55       0.00000           0.722685           19.66525
     56       0.00000           0.722710           19.66594
     57       0.00000           0.724106           19.70394
     58       0.00000           0.724148           19.70506
     59       0.00000           0.817167           22.23624
     60       0.00000           0.817195           22.23702
     61       0.00000           0.875501           23.82360
     62       0.00000           0.875526           23.82428
     63       0.00000           0.972110           26.45247
     64       0.00000           1.065889           29.00431
     65       0.00000           1.098442           29.89012
     66       0.00000           1.098571           29.89363
     67       0.00000           1.121645           30.52151
     68       0.00000           1.140015           31.02137
     69       0.00000           1.180123           32.11278
     70       0.00000           1.198308           32.60763
     71       0.00000           1.198312           32.60772
     72       0.00000           1.273071           34.64202
     73       0.00000           1.273125           34.64351
     74       0.00000           1.370896           37.30397
     75       0.00000           1.370926           37.30480
     76       0.00000           1.397143           38.01819
     77       0.00000           1.397169           38.01891
     78       0.00000           1.436967           39.10186
     79       0.00000           1.444013           39.29360
     80       0.00000           1.590842           43.28901
     81       0.00000           1.603467           43.63257
     82       0.00000           1.603501           43.63348
     83       0.00000           1.644506           44.74928
     84       0.00000           1.644520           44.74967
     85       0.00000           1.684619           45.84080
     86       0.00000           1.684640           45.84137
     87       0.00000           1.719598           46.79265
     88       0.00000           1.719627           46.79343
     89       0.00000           1.742543           47.41701
     90       0.00000           1.815361           49.39850
     91       0.00000           1.831925           49.84923
     92       0.00000           1.831951           49.84992
     93       0.00000           1.978518           53.83820
     94       0.00000           1.978529           53.83851
     95       0.00000           2.240690           60.97227
     96       0.00000           2.240695           60.97243
     97       0.00000           2.244413           61.07359
     98       0.00000           2.259674           61.48886
     99       0.00000           2.284147           62.15481
    100       0.00000           2.377597           64.69771
    101       0.00000           2.377618           64.69829
    102       0.00000           2.513733           68.40214
    103       0.00000           2.619021           71.26718
    104       0.00000           2.619046           71.26787
    105       0.00000           2.879581           78.35739
    106       0.00000           3.054441           83.11556
    107       0.00000           3.054485           83.11678
    108       0.00000           3.350175           91.16289
    109       0.00000           3.350262           91.16528
    110       0.00000           3.649848           99.31742
    111       0.00000           3.705444          100.83027
    112       0.00000           3.740902          101.79513
    113       0.00000           3.740909          101.79532
    114       0.00000           5.995815          163.15442

  Highest occupied state (VBM) at    -11.11007105 eV
  | Occupation number:      2.00000000

  Lowest unoccupied state (CBM) at    -5.85041859 eV
  | Occupation number:      0.00000000

  Overall HOMO-LUMO gap:      5.25965245 eV.
  Calculating total energy contributions from superposition of free atom densities.

  Total energy components:
  | Sum of eigenvalues            :        -140.07760910 Ha       -3811.70568105 eV
  | XC energy correction          :         -31.73429497 Ha        -863.53410227 eV
  | XC potential correction       :          41.76213561 Ha        1136.40552966 eV
  | Free-atom electrostatic energy:        -100.58399877 Ha       -2737.02986506 eV
  | Hartree energy correction     :           0.00000000 Ha           0.00000000 eV
  | vdW energy correction         :           0.00000000 Ha           0.00000000 eV
  | Entropy correction            :           0.00000000 Ha           0.00000000 eV
  | ---------------------------
  | Total energy                  :        -230.63376723 Ha       -6275.86411870 eV
  | Total energy, T -> 0          :        -230.63376723 Ha       -6275.86411870 eV  <-- do not rely on this value for anything but (periodic) metals
  | Electronic free energy        :        -230.63376723 Ha       -6275.86411870 eV

  Derived energy quantities:
  | Kinetic energy                :         226.90989628 Ha        6174.53243456 eV
  | Electrostatic energy          :        -425.80936854 Ha      -11586.86245100 eV
  | Energy correction for multipole
  | error in Hartree potential    :           0.00000000 Ha           0.00000000 eV
  | Sum of eigenvalues per atom                           :        -317.64214009 eV
  | Total energy (T->0) per atom                          :        -522.98867656 eV  <-- do not rely on this value for anything but (periodic) metals
  | Electronic free energy per atom                       :        -522.98867656 eV
  Initialize hartree_potential_storage
  Max. number of atoms included in rho_multipole:           12

  End scf initialization - timings             :  max(cpu_time)    wall_clock(cpu1)
  | Time for scf. initialization               :        0.070 s           0.072 s
  | Boundary condition initialization          :        0.000 s           0.000 s
  | Integration                                :        0.015 s           0.016 s
  | Solution of K.-S. eqns.                    :        0.016 s           0.017 s
  | Grid partitioning                          :        0.023 s           0.023 s
  | Preloading free-atom quantities on grid    :        0.010 s           0.009 s
  | Free-atom superposition energy             :        0.002 s           0.002 s
  | Total energy evaluation                    :        0.000 s           0.001 s

  Partial memory accounting:
  | Current value for overall tracked memory usage:
  |   Minimum:        0.154 MB (on task 39)
  |   Maximum:        0.159 MB (on task  0)
  |   Average:        0.158 MB
  | Peak value for overall tracked memory usage:
  |   Minimum:        0.774 MB (on task  6 after allocating wave)
  |   Maximum:        0.786 MB (on task  0 after allocating wave)
  |   Average:        0.783 MB
  | Largest tracked array allocation so far:
  |   Minimum:        0.156 MB (H_times_psi on task  6)
  |   Maximum:        0.265 MB (all_coords on task 18)
  |   Average:        0.169 MB
  Note:  These values currently only include a subset of arrays which are explicitly tracked.
  The "true" memory usage will be greater.
------------------------------------------------------------
  Evaluating new KS density.
  Integration grid: deviation in total charge (<rho> - N_e) =   4.263256E-14

  Time for density update prior                :  max(cpu_time)    wall_clock(cpu1)
  | self-consistency iterative process         :        0.005 s           0.005 s

------------------------------------------------------------
          Begin self-consistency iteration #    1

  Date     :  20210705, Time     :  094203.635
------------------------------------------------------------
  Pulay mixing of updated and previous charge densities.

  Evaluating partitioned Hartree potential by multipole expansion.
  | Analytical far-field extrapolation by fixed multipoles:
  | Hartree multipole sum: apparent total charge =  -0.681512E-04
  Summing up the Hartree potential.
  Time summed over all CPUs for potential: real work        0.427 s, elapsed        0.440 s
  | RMS charge density error from multipole expansion :   0.186074E-02

  Integrating Hamiltonian matrix: batch-based integration.
  Time summed over all CPUs for integration: real work        0.266 s, elapsed        0.288 s

  Updating Kohn-Sham eigenvalues and eigenvectors using ELSI and the ELPA eigensolver.
  Starting ELPA eigensolver
  Finished transformation to standard eigenproblem
  | Time :     0.001 s
  Finished solving standard eigenproblem
  | Time :     0.002 s
  Finished back-transformation of eigenvectors
  | Time :     0.000 s

  Obtaining occupation numbers and chemical potential using ELSI.
  | Chemical potential (Fermi level):    -7.14504817 eV
  Writing Kohn-Sham eigenvalues.

  State    Occupation    Eigenvalue [Ha]    Eigenvalue [eV]
      1       2.00000         -10.045358         -273.34809
      2       2.00000         -10.045129         -273.34187
      3       2.00000         -10.045129         -273.34187
      4       2.00000         -10.044672         -273.32943
      5       2.00000         -10.044672         -273.32942
      6       2.00000         -10.044443         -273.32321
      7       2.00000          -0.972350          -26.45898
      8       2.00000          -0.864019          -23.51115
      9       2.00000          -0.864014          -23.51101
     10       2.00000          -0.727865          -19.80620
     11       2.00000          -0.727863          -19.80615
     12       2.00000          -0.643903          -17.52150
     13       2.00000          -0.611887          -16.65030
     14       2.00000          -0.563778          -15.34118
     15       2.00000          -0.551233          -14.99982
     16       2.00000          -0.551226          -14.99962
     17       2.00000          -0.491093          -13.36333
     18       2.00000          -0.481806          -13.11061
     19       2.00000          -0.481797          -13.11037
     20       2.00000          -0.391029          -10.64045
     21       2.00000          -0.391026          -10.64037
     22       0.00000          -0.198038           -5.38890
     23       0.00000          -0.198034           -5.38879
     24       0.00000          -0.054690           -1.48820
     25       0.00000          -0.052771           -1.43597
     26       0.00000          -0.005327           -0.14495
     27       0.00000          -0.005321           -0.14480
     28       0.00000           0.029556            0.80426
     29       0.00000           0.029560            0.80437
     30       0.00000           0.067374            1.83333
     31       0.00000           0.119765            3.25897
     32       0.00000           0.119782            3.25943
     33       0.00000           0.121763            3.31335
     34       0.00000           0.121797            3.31426
     35       0.00000           0.175234            4.76836
     36       0.00000           0.200888            5.46644
     37       0.00000           0.208061            5.66164
     38       0.00000           0.252896            6.88166
     39       0.00000           0.252904            6.88187
     40       0.00000           0.274924            7.48106
     41       0.00000           0.274928            7.48116
     42       0.00000           0.280507            7.63298
     43       0.00000           0.295287            8.03518
     44       0.00000           0.295383            8.03777
     45       0.00000           0.353090            9.60807
     46       0.00000           0.361311            9.83178
     47       0.00000           0.434256           11.81671
     48       0.00000           0.434347           11.81919
     49       0.00000           0.470055           12.79085
     50       0.00000           0.643373           17.50707
     51       0.00000           0.643401           17.50783
     52       0.00000           0.643873           17.52068
     53       0.00000           0.648586           17.64893
     54       0.00000           0.730274           19.87178
     55       0.00000           0.733184           19.95096
     56       0.00000           0.733203           19.95146
     57       0.00000           0.737162           20.05919
     58       0.00000           0.737181           20.05971
     59       0.00000           0.831798           22.63438
     60       0.00000           0.831827           22.63517
     61       0.00000           0.891013           24.24570
     62       0.00000           0.891037           24.24636
     63       0.00000           0.986492           26.84382
     64       0.00000           1.078776           29.35500
     65       0.00000           1.110204           30.21018
     66       0.00000           1.110332           30.21367
     67       0.00000           1.131822           30.79843
     68       0.00000           1.153290           31.38261
     69       0.00000           1.195696           32.53656
     70       0.00000           1.208934           32.89677
     71       0.00000           1.208938           32.89687
     72       0.00000           1.285866           34.99020
     73       0.00000           1.285920           34.99167
     74       0.00000           1.385991           37.71473
     75       0.00000           1.386021           37.71555
     76       0.00000           1.412944           38.44817
     77       0.00000           1.412971           38.44889
     78       0.00000           1.446802           39.36947
     79       0.00000           1.453877           39.56200
     80       0.00000           1.605847           43.69731
     81       0.00000           1.614800           43.94094
     82       0.00000           1.614834           43.94186
     83       0.00000           1.660575           45.18655
     84       0.00000           1.660590           45.18696
     85       0.00000           1.701675           46.30492
     86       0.00000           1.701697           46.30552
     87       0.00000           1.737530           47.28060
     88       0.00000           1.737561           47.28143
     89       0.00000           1.753638           47.71891
     90       0.00000           1.830135           49.80050
     91       0.00000           1.846954           50.25817
     92       0.00000           1.846979           50.25886
     93       0.00000           1.993013           54.23264
     94       0.00000           1.993024           54.23295
     95       0.00000           2.254504           61.34817
     96       0.00000           2.254509           61.34832
     97       0.00000           2.256292           61.39682
     98       0.00000           2.275631           61.92306
     99       0.00000           2.302835           62.66332
    100       0.00000           2.394929           65.16933
    101       0.00000           2.394951           65.16993
    102       0.00000           2.527719           68.78274
    103       0.00000           2.632068           71.62221
    104       0.00000           2.632094           71.62292
    105       0.00000           2.897378           78.84166
    106       0.00000           3.071366           83.57611
    107       0.00000           3.071410           83.57732
    108       0.00000           3.364526           91.55341
    109       0.00000           3.364614           91.55581
    110       0.00000           3.670103           99.86859
    111       0.00000           3.721588          101.26956
    112       0.00000           3.756029          102.20675
    113       0.00000           3.756035          102.20692
    114       0.00000           6.008438          163.49793

  Highest occupied state (VBM) at    -10.64037054 eV
  | Occupation number:      2.00000000

  Lowest unoccupied state (CBM) at    -5.38889524 eV
  | Occupation number:      0.00000000

  Overall HOMO-LUMO gap:      5.25147530 eV.

  Total energy components:
  | Sum of eigenvalues            :        -139.16858506 Ha       -3786.96987832 eV
  | XC energy correction          :         -31.80075797 Ha        -865.34265244 eV
  | XC potential correction       :          41.84967419 Ha        1138.78757566 eV
  | Free-atom electrostatic energy:        -100.58399877 Ha       -2737.02986506 eV
  | Hartree energy correction     :          -0.87509178 Ha         -23.81245886 eV
  | vdW energy correction         :           0.00000000 Ha           0.00000000 eV
  | Entropy correction            :           0.00000000 Ha           0.00000000 eV
  | ---------------------------
  | Total energy                  :        -230.57875938 Ha       -6274.36727901 eV
  | Total energy, T -> 0          :        -230.57875938 Ha       -6274.36727901 eV  <-- do not rely on this value for anything but (periodic) metals
  | Electronic free energy        :        -230.57875938 Ha       -6274.36727901 eV

  Derived energy quantities:
  | Kinetic energy                :         227.27616246 Ha        6184.49904427 eV
  | Electrostatic energy          :        -426.05416387 Ha      -11593.52367084 eV
  | Energy correction for multipole
  | error in Hartree potential    :           0.00510870 Ha           0.13901480 eV
  | Sum of eigenvalues per atom                           :        -315.58082319 eV
  | Total energy (T->0) per atom                          :        -522.86393992 eV  <-- do not rely on this value for anything but (periodic) metals
  | Electronic free energy per atom                       :        -522.86393992 eV
  Evaluating new KS density.
  Integration grid: deviation in total charge (<rho> - N_e) =   0.000000E+00

  Self-consistency convergence accuracy:
  | Change of charge density      :  0.5207E+00
  | Change of sum of eigenvalues  :  0.2474E+02 eV
  | Change of total energy        :  0.1497E+01 eV


------------------------------------------------------------
  End self-consistency iteration #     1       :  max(cpu_time)    wall_clock(cpu1)
  | Time for this iteration                    :        0.032 s           0.033 s
  | Charge density update                      :        0.004 s           0.005 s
  | Density mixing                             :        0.000 s           0.000 s
  | Hartree multipole update                   :        0.002 s           0.003 s
  | Hartree multipole summation                :        0.012 s           0.012 s
  | Integration                                :        0.008 s           0.008 s
  | Solution of K.-S. eqns.                    :        0.005 s           0.004 s
  | Total energy evaluation                    :        0.001 s           0.000 s

  Partial memory accounting:
  | Current value for overall tracked memory usage:
  |   Minimum:        0.154 MB (on task 39)
  |   Maximum:        0.159 MB (on task  0)
  |   Average:        0.158 MB
  | Peak value for overall tracked memory usage:
  |   Minimum:        0.774 MB (on task  6 after allocating wave)
  |   Maximum:        0.786 MB (on task  0 after allocating wave)
  |   Average:        0.783 MB
  | Largest tracked array allocation so far:
  |   Minimum:        0.156 MB (H_times_psi on task  6)
  |   Maximum:        0.265 MB (all_coords on task 18)
  |   Average:        0.169 MB
  Note:  These values currently only include a subset of arrays which are explicitly tracked.
  The "true" memory usage will be greater.
------------------------------------------------------------

------------------------------------------------------------
          Begin self-consistency iteration #    2

  Date     :  20210705, Time     :  094203.669
------------------------------------------------------------
  Pulay mixing of updated and previous charge densities.

  Evaluating partitioned Hartree potential by multipole expansion.
  | Analytical far-field extrapolation by fixed multipoles:
  | Hartree multipole sum: apparent total charge =  -0.440017E-03
  Summing up the Hartree potential.
  Time summed over all CPUs for potential: real work        0.422 s, elapsed        0.435 s
  | RMS charge density error from multipole expansion :   0.208568E-01

  Integrating Hamiltonian matrix: batch-based integration.
  Time summed over all CPUs for integration: real work        0.266 s, elapsed        0.291 s

  Updating Kohn-Sham eigenvalues and eigenvectors using ELSI and the ELPA eigensolver.
  Starting ELPA eigensolver
  Finished transformation to standard eigenproblem
  | Time :     0.001 s
  Finished solving standard eigenproblem
  | Time :     0.002 s
  Finished back-transformation of eigenvectors
  | Time :     0.001 s

  Obtaining occupation numbers and chemical potential using ELSI.
  | Chemical potential (Fermi level):    -1.91954886 eV
  Highest occupied state (VBM) at     -6.20843741 eV
  | Occupation number:      2.00000000

  Lowest unoccupied state (CBM) at    -1.06931230 eV
  | Occupation number:      0.00000000

  Overall HOMO-LUMO gap:      5.13912510 eV.

  Checking to see if s.c.f. parameters should be adjusted.
  The system likely has a gap. Increased the default Pulay mixing parameter (charge_mix_param). Value:   0.200000 .
  Kept the default occupation width. Value:   0.010000 eV.

  Total energy components:
  | Sum of eigenvalues            :        -130.37270876 Ha       -3547.62190635 eV
  | XC energy correction          :         -32.50372883 Ha        -884.47146280 eV
  | XC potential correction       :          42.77548745 Ha        1163.98023610 eV
  | Free-atom electrostatic energy:        -100.58399877 Ha       -2737.02986506 eV
  | Hartree energy correction     :          -9.66115634 Ha        -262.89343983 eV
  | vdW energy correction         :           0.00000000 Ha           0.00000000 eV
  | Entropy correction            :           0.00000000 Ha           0.00000000 eV
  | ---------------------------
  | Total energy                  :        -230.34610525 Ha       -6268.03643794 eV
  | Total energy, T -> 0          :        -230.34610525 Ha       -6268.03643794 eV  <-- do not rely on this value for anything but (periodic) metals
  | Electronic free energy        :        -230.34610525 Ha       -6268.03643794 eV

  Derived energy quantities:
  | Kinetic energy                :         230.34841674 Ha        6268.09933691 eV
  | Electrostatic energy          :        -428.19079316 Ha      -11651.66431205 eV
  | Energy correction for multipole
  | error in Hartree potential    :           0.05518018 Ha           1.50152912 eV
  | Sum of eigenvalues per atom                           :        -295.63515886 eV
  | Total energy (T->0) per atom                          :        -522.33636983 eV  <-- do not rely on this value for anything but (periodic) metals
  | Electronic free energy per atom                       :        -522.33636983 eV
  Evaluating new KS density.
  Integration grid: deviation in total charge (<rho> - N_e) =   0.000000E+00

  Self-consistency convergence accuracy:
  | Change of charge density      :  0.4819E+00
  | Change of sum of eigenvalues  :  0.2393E+03 eV
  | Change of total energy        :  0.6331E+01 eV


------------------------------------------------------------
  End self-consistency iteration #     2       :  max(cpu_time)    wall_clock(cpu1)
  | Time for this iteration                    :        0.030 s           0.030 s
  | Charge density update                      :        0.004 s           0.004 s
  | Density mixing                             :        0.000 s           0.000 s
  | Hartree multipole update                   :        0.002 s           0.002 s
  | Hartree multipole summation                :        0.011 s           0.011 s
  | Integration                                :        0.008 s           0.008 s
  | Solution of K.-S. eqns.                    :        0.004 s           0.004 s
[...]
  | RMS delta_rho error from multipole expansion :   0.745671E-01

  Integrating first-order-Hamiltonian matrix: batch-based integration.
  Time summed over all CPUs for integration: real work        0.355 s, elapsed        0.390 s
  End CPSCF iteration #     3                  :  max(cpu_time)    wall_clock(cpu1)
  | Time for this iteration                    :        0.059 s           0.059 s
  | first_order_density                        :        0.008 s           0.008 s
  | first_order_potential                      :        0.037 s           0.037 s
  | first_order_H                              :        0.010 s           0.010 s
  | first_order_DM                             :        0.002 s           0.002 s
  | Solution of Sternheimer eqns.              :        0.001 s           0.001 s
------------------------------------------------------------

-------------------------------------------------------------
          Begin CP-self-consistency iteration #    4

  Date     :  20210705, Time     :  094204.247
------------------------------------------------------------

  CPSCF convergence accuracy:
  | Change of first_order_density_matrix     :  0.2556E+00
  Integrating first_order_rho: batch-based integration.
  Time summed over all CPUs for integration: real work        0.272 s, elapsed        0.300 s

  Evaluating partitioned Hartree potential by multipole expansion.
  | Analytical far-field extrapolation by fixed multipoles:
  | Hartree multipole sum: apparent total charge =   0.977722E-08
  Summing up the Hartree potential.
  Time summed over all CPUs for potential: real work        0.423 s, elapsed        0.437 s
  | RMS delta_rho error from multipole expansion :   0.105494E+00


  Evaluating partitioned Hartree potential by multipole expansion.
  | Analytical far-field extrapolation by fixed multipoles:
  | Hartree multipole sum: apparent total charge =   0.133846E-08
  Summing up the Hartree potential.
  Time summed over all CPUs for potential: real work        0.414 s, elapsed        0.429 s
  | RMS delta_rho error from multipole expansion :   0.105466E+00


  Evaluating partitioned Hartree potential by multipole expansion.
  | Analytical far-field extrapolation by fixed multipoles:
  | Hartree multipole sum: apparent total charge =  -0.978038E-07
  Summing up the Hartree potential.
  Time summed over all CPUs for potential: real work        0.414 s, elapsed        0.429 s
  | RMS delta_rho error from multipole expansion :   0.708898E-01

  Integrating first-order-Hamiltonian matrix: batch-based integration.
  Time summed over all CPUs for integration: real work        0.355 s, elapsed        0.386 s
  End CPSCF iteration #     4                  :  max(cpu_time)    wall_clock(cpu1)
  | Time for this iteration                    :        0.059 s           0.059 s
  | first_order_density                        :        0.008 s           0.008 s
  | first_order_potential                      :        0.037 s           0.037 s
  | first_order_H                              :        0.010 s           0.010 s
  | first_order_DM                             :        0.002 s           0.002 s
  | Solution of Sternheimer eqns.              :        0.001 s           0.001 s
------------------------------------------------------------

-------------------------------------------------------------
          Begin CP-self-consistency iteration #    5

  Date     :  20210705, Time     :  094204.306
------------------------------------------------------------

  CPSCF convergence accuracy:
  | Change of first_order_density_matrix     :  0.5400E-01
  Integrating first_order_rho: batch-based integration.
  Time summed over all CPUs for integration: real work        0.273 s, elapsed        0.300 s

  Evaluating partitioned Hartree potential by multipole expansion.
  | Analytical far-field extrapolation by fixed multipoles:
  | Hartree multipole sum: apparent total charge =   0.848527E-08
  Summing up the Hartree potential.
  Time summed over all CPUs for potential: real work        0.421 s, elapsed        0.435 s
  | RMS delta_rho error from multipole expansion :   0.104055E+00


  Evaluating partitioned Hartree potential by multipole expansion.
  | Analytical far-field extrapolation by fixed multipoles:
  | Hartree multipole sum: apparent total charge =   0.157862E-08
  Summing up the Hartree potential.
  Time summed over all CPUs for potential: real work        0.413 s, elapsed        0.428 s
  | RMS delta_rho error from multipole expansion :   0.104029E+00


  Evaluating partitioned Hartree potential by multipole expansion.
  | Analytical far-field extrapolation by fixed multipoles:
  | Hartree multipole sum: apparent total charge =  -0.669612E-07
  Summing up the Hartree potential.
  Time summed over all CPUs for potential: real work        0.413 s, elapsed        0.429 s
  | RMS delta_rho error from multipole expansion :   0.719691E-01

  Integrating first-order-Hamiltonian matrix: batch-based integration.
  Time summed over all CPUs for integration: real work        0.355 s, elapsed        0.389 s
  End CPSCF iteration #     5                  :  max(cpu_time)    wall_clock(cpu1)
  | Time for this iteration                    :        0.059 s           0.059 s
  | first_order_density                        :        0.008 s           0.008 s
  | first_order_potential                      :        0.037 s           0.037 s
  | first_order_H                              :        0.010 s           0.010 s
  | first_order_DM                             :        0.002 s           0.002 s
  | Solution of Sternheimer eqns.              :        0.001 s           0.001 s
------------------------------------------------------------

-------------------------------------------------------------
          Begin CP-self-consistency iteration #    6

  Date     :  20210705, Time     :  094204.365
------------------------------------------------------------

  CPSCF convergence accuracy:
  | Change of first_order_density_matrix     :  0.1779E-01
  Integrating first_order_rho: batch-based integration.
  Time summed over all CPUs for integration: real work        0.273 s, elapsed        0.300 s

  Evaluating partitioned Hartree potential by multipole expansion.
  | Analytical far-field extrapolation by fixed multipoles:
  | Hartree multipole sum: apparent total charge =   0.854894E-08
  Summing up the Hartree potential.
  Time summed over all CPUs for potential: real work        0.423 s, elapsed        0.437 s
  | RMS delta_rho error from multipole expansion :   0.103730E+00


  Evaluating partitioned Hartree potential by multipole expansion.
  | Analytical far-field extrapolation by fixed multipoles:
  | Hartree multipole sum: apparent total charge =   0.146648E-08
  Summing up the Hartree potential.
  Time summed over all CPUs for potential: real work        0.414 s, elapsed        0.429 s
  | RMS delta_rho error from multipole expansion :   0.103704E+00


  Evaluating partitioned Hartree potential by multipole expansion.
  | Analytical far-field extrapolation by fixed multipoles:
  | Hartree multipole sum: apparent total charge =  -0.838572E-07
  Summing up the Hartree potential.
  Time summed over all CPUs for potential: real work        0.414 s, elapsed        0.428 s
  | RMS delta_rho error from multipole expansion :   0.717322E-01

  Integrating first-order-Hamiltonian matrix: batch-based integration.
  Time summed over all CPUs for integration: real work        0.355 s, elapsed        0.389 s
  End CPSCF iteration #     6                  :  max(cpu_time)    wall_clock(cpu1)
  | Time for this iteration                    :        0.058 s           0.058 s
  | first_order_density                        :        0.008 s           0.007 s
  | first_order_potential                      :        0.037 s           0.037 s
  | first_order_H                              :        0.010 s           0.010 s
  | first_order_DM                             :        0.002 s           0.002 s
  | Solution of Sternheimer eqns.              :        0.001 s           0.001 s
------------------------------------------------------------

-------------------------------------------------------------
          Begin CP-self-consistency iteration #    7

  Date     :  20210705, Time     :  094204.423
------------------------------------------------------------

  CPSCF convergence accuracy:
  | Change of first_order_density_matrix     :  0.2598E-02
  Integrating first_order_rho: batch-based integration.
  Time summed over all CPUs for integration: real work        0.272 s, elapsed        0.300 s

  Evaluating partitioned Hartree potential by multipole expansion.
  | Analytical far-field extrapolation by fixed multipoles:
  | Hartree multipole sum: apparent total charge =   0.916342E-08
  Summing up the Hartree potential.
  Time summed over all CPUs for potential: real work        0.423 s, elapsed        0.437 s
  | RMS delta_rho error from multipole expansion :   0.103697E+00


  Evaluating partitioned Hartree potential by multipole expansion.
  | Analytical far-field extrapolation by fixed multipoles:
  | Hartree multipole sum: apparent total charge =   0.156747E-08
  Summing up the Hartree potential.
  Time summed over all CPUs for potential: real work        0.414 s, elapsed        0.428 s
  | RMS delta_rho error from multipole expansion :   0.103672E+00


  Evaluating partitioned Hartree potential by multipole expansion.
  | Analytical far-field extrapolation by fixed multipoles:
  | Hartree multipole sum: apparent total charge =  -0.664952E-07
  Summing up the Hartree potential.
  Time summed over all CPUs for potential: real work        0.414 s, elapsed        0.429 s
  | RMS delta_rho error from multipole expansion :   0.717163E-01

  Integrating first-order-Hamiltonian matrix: batch-based integration.
  Time summed over all CPUs for integration: real work        0.356 s, elapsed        0.389 s
  End CPSCF iteration #     7                  :  max(cpu_time)    wall_clock(cpu1)
  | Time for this iteration                    :        0.058 s           0.058 s
  | first_order_density                        :        0.008 s           0.007 s
  | first_order_potential                      :        0.037 s           0.036 s
  | first_order_H                              :        0.010 s           0.010 s
  | first_order_DM                             :        0.002 s           0.002 s
  | Solution of Sternheimer eqns.              :        0.001 s           0.001 s
------------------------------------------------------------

-------------------------------------------------------------
          Begin CP-self-consistency iteration #    8

  Date     :  20210705, Time     :  094204.481
------------------------------------------------------------

  CP-self-consistency cycle converged in    7 iterations

  End CPSCF iteration #     8                  :  max(cpu_time)    wall_clock(cpu1)
  | Time for this iteration                    :        0.002 s           0.002 s
  | first_order_density                        :        0.008 s           0.007 s
  | first_order_potential                      :        0.037 s           0.036 s
  | first_order_H                              :        0.010 s           0.010 s
  | first_order_DM                             :        0.002 s           0.002 s
  | Solution of Sternheimer eqns.              :        0.001 s           0.001 s
------------------------------------------------------------
  Summing up the Hartree potential.
  Time summed over all CPUs for integrate_polarizability: real work        0.002 s, elapsed        0.003 s

DFPT for polarizability:--->
   75.7286324845828      -1.976765858402452E-005 -3.977740736867741E-003
 -1.976292277894309E-005   75.7278416063303       2.296400236995622E-003
 -3.973601209560584E-003  2.293914272153863E-003   30.8294897827056
The mean polarizability is   60.761988
DFPT polarizability (Bohr^3)        xx        yy        zz        xy        xz        yz
  | Polarizability:--->                        75.728632485             75.727841606             30.829489783             -0.000019768             -0.003977741              0.002296400

                                               :  max(cpu_time)    wall_clock(cpu1)
  | Time for polarizability calculation        :        0.000 s           0.001 s
===========================================================================

------------------------------------------------------------------------------
  Final output of selected total energy values:

  The following output summarizes some interesting total energy values
  at the end of a run (AFTER all relaxation, molecular dynamics, etc.).

  | Total energy of the DFT / Hartree-Fock s.c.f. calculation      :          -6267.482845015 eV
  | Final zero-broadening corrected energy (caution - metals only) :          -6267.482845015 eV
  | For reference only, the value of 1 Hartree used in FHI-aims is :             27.211384500 eV

  Before relying on these values, please be sure to understand exactly which
  total energy value is referred to by a given number. Different objects may
  all carry the same name 'total energy'. Definitions:

  Total energy of the DFT / Hartree-Fock s.c.f. calculation:
  | Note that this energy does not include ANY quantities calculated after the
  | s.c.f. cycle, in particular not ANY RPA, MP2, etc. many-body perturbation terms.

  Final zero-broadening corrected energy:
  | For metallic systems only, a broadening of the occupation numbers at the Fermi
  | level can be extrapolated back to zero broadening by an electron-gas inspired
  | formula. For all systems that are not real metals, this value can be
  | meaningless and should be avoided.

------------------------------------------------------------------------------
  Methods described in the following list of references were used in this FHI-aims run.
  If you publish the results, please make sure to cite these reference if they apply.
  FHI-aims is an academic code, and for our developers (often, Ph.D. students
  and postdocs), scientific credit in the community is essential.
  Thank you for helping us!

  For any use of FHI-aims, please cite:

    Volker Blum, Ralf Gehrke, Felix Hanke, Paula Havu, Ville Havu,
    Xinguo Ren, Karsten Reuter, and Matthias Scheffler
    'Ab initio molecular simulations with numeric atom-centered orbitals'
    Computer Physics Communications 180, 2175-2196 (2009)
    http://dx.doi.org/10.1016/j.cpc.2009.06.022


  The DFPT (perturbation by an electric field) part of the code was used.
  Here is the corresponding reference:

    Honghui Shang, Nathaniel Raimbault, Mariana Rossi,
    Christian Carbogno, Patrick Rinke and Matthias Scheffler,
    'All-Electron, Real-Space Perturbation Theory for Homogeneous
    Electric Fields: Theory, Implementation, and Application within dft'
    New Journal of Physics, 20(7):073040, 2018


  The ELSI infrastructure was used in your run to solve the Kohn-Sham electronic structure.
  Please check out http://elsi-interchange.org to learn more.
  If scalability is important for your project, please acknowledge ELSI by citing:

    V. W-z. Yu, F. Corsetti, A. Garcia, W. P. Huhn, M. Jacquelin, W. Jia,
    B. Lange, L. Lin, J. Lu, W. Mi, A. Seifitokaldani, A. Vazquez-Mayagoitia,
    C. Yang, H. Yang, and V. Blum
    'ELSI: A unified software interface for Kohn-Sham electronic structure solvers'
    Computer Physics Communications 222, 267-285 (2018).
    http://dx.doi.org/10.1016/j.cpc.2017.09.007


  For the real-space grid partitioning and parallelization used in this calculation, please cite:

    Ville Havu, Volker Blum, Paula Havu, and Matthias Scheffler,
    'Efficient O(N) integration for all-electron electronic structure calculation'
    'using numerically tabulated basis functions'
    Journal of Computational Physics 228, 8367-8379 (2009).
    http://dx.doi.org/10.1016/j.jcp.2009.08.008

  Of course, there are many other important community references, e.g., those cited in the
  above references. Our list is limited to references that describe implementations in the
  FHI-aims code. The reason is purely practical (length of this list) - please credit others as well.

 * A warning was issued further up regarding the accuracy of onsite integrals.
   An integral with a negative eigenvalue was among the flagged integrals.
   In most standard situations, this warning is probably harmless.
   If needed, this can be verified by adjusting the radial_multiplier flag.

------------------------------------------------------------
          Leaving FHI-aims.
          Date     :  20210705, Time     :  094204.492

          Computational steps:
          | Number of self-consistency cycles          :           20
          | Number of SCF (re)initializations          :            1

          Detailed time accounting                     :  max(cpu_time)    wall_clock(cpu1)
          | Total time                                 :        1.329 s           1.337 s
          | Preparation time                           :        0.326 s           0.338 s
          | Boundary condition initalization           :        0.000 s           0.000 s
          | Grid partitioning                          :        0.023 s           0.023 s
          | Preloading free-atom quantities on grid    :        0.010 s           0.009 s
          | Free-atom superposition energy             :        0.002 s           0.002 s
          | Total time for integrations                :        0.106 s           0.108 s
          | Transforming ovlp_3fn to ovlp_3KS          :        0.000 s           0.000 s
          | Total time for solution of K.-S. equations :        0.063 s           0.061 s
          | Total time for density & force components  :        0.072 s           0.071 s
          | Total time for mixing                      :        0.004 s           0.003 s
          | Total time for Hartree multipole update    :        0.017 s           0.019 s
          | Total time for Hartree multipole sum       :        0.154 s           0.152 s
          | Total time for total energy evaluation     :        0.004 s           0.004 s
          | Total time NSC force correction            :        0.017 s           0.018 s
          | Total time for scaled ZORA corrections     :        0.000 s           0.000 s
          | Total time for vdW correction              :        0.004 s           0.004 s
          | Total time for DFPT pol or diel            :        0.428 s           0.429 s
          | Total time for first_order_density         :        0.054 s           0.054 s
          | Total time for first_order_potential       :        0.257 s           0.258 s
          | Total time for first_order_H               :        0.071 s           0.070 s
          | Total time for first_order_DM              :        0.017 s           0.017 s
          | Total time for solving Sternheimer eqns.   :        0.008 s           0.008 s

          Partial memory accounting:
          | Residual value for overall tracked memory usage across tasks:     0.000000 MB (should be 0.000000 MB)
          | Peak values for overall tracked memory usage:
          |   Minimum:        0.945 MB (on task  6 after allocating h_times_wave)
          |   Maximum:        0.956 MB (on task  0 after allocating h_times_wave)
          |   Average:        0.953 MB
          | Largest tracked array allocation:
          |   Minimum:        0.469 MB (gradient_basis_wave on task  6)
          |   Maximum:        0.477 MB (gradient_basis_wave on task  0)
          |   Average:        0.477 MB
          Note:  These values currently only include a subset of arrays which are explicitly tracked.
          The "true" memory usage will be greater.

          Have a nice day.
------------------------------------------------------------
